Built with Packmol
 3329
    1SOL     OW    1   2.484   1.659   2.419
    1SOL    HW1    2   2.575   1.662   2.462
    1SOL    HW2    3   2.452   1.565   2.416
    2SOL     OW    4   2.564   2.482   2.551
    2SOL    HW1    5   2.505   2.407   2.523
    2SOL    HW2    6   2.596   2.532   2.471
    3SOL     OW    7   0.880   3.065   0.759
    3SOL    HW1    8   0.957   3.075   0.695
    3SOL    HW2    9   0.863   2.968   0.775
    4SOL     OW   10   0.015   2.471   1.180
    4SOL    HW1   11   0.071   2.549   1.156
    4SOL    HW2   12   0.056   2.423   1.258
    5SOL     OW   13   2.304   0.166   2.797
    5SOL    HW1   14   2.298   0.259   2.761
    5SOL    HW2   15   2.395   0.130   2.779
    6SOL     OW   16   3.124   0.819   2.239
    6SOL    HW1   17   3.107   0.733   2.192
    6SOL    HW2   18   3.040   0.873   2.242
    7SOL     OW   19   1.281   1.790   0.139
    7SOL    HW1   20   1.193   1.754   0.107
    7SOL    HW2   21   1.272   1.819   0.234
    8SOL     OW   22   2.928   1.810   1.365
    8SOL    HW1   23   2.995   1.780   1.296
    8SOL    HW2   24   2.975   1.859   1.438
    9SOL     OW   25   0.325   1.092   3.103
    9SOL    HW1   26   0.387   1.040   3.163
    9SOL    HW2   27   0.237   1.105   3.149
   10SOL     OW   28   0.674   0.970   2.910
   10SOL    HW1   29   0.713   0.914   2.837
   10SOL    HW2   30   0.731   0.962   2.992
   11SOL     OW   31   2.998   1.673   0.453
   11SOL    HW1   32   2.987   1.676   0.354
   11SOL    HW2   33   2.922   1.721   0.496
   12SOL     OW   34   2.196   0.505   1.046
   12SOL    HW1   35   2.137   0.455   0.982
   12SOL    HW2   36   2.242   0.439   1.106
   13SOL     OW   37   2.023   0.768   1.024
   13SOL    HW1   38   2.020   0.868   1.033
   13SOL    HW2   39   2.112   0.741   0.987
   14SOL     OW   40   2.792   1.043   1.606
   14SOL    HW1   41   2.734   0.979   1.555
   14SOL    HW2   42   2.885   1.037   1.572
   15SOL     OW   43   1.925   2.926   0.866
   15SOL    HW1   44   1.947   2.839   0.909
   15SOL    HW2   45   1.854   2.973   0.918
   16SOL     OW   46   0.327   1.608   0.017
   16SOL    HW1   47   0.354   1.563   0.101
   16SOL    HW2   48   0.302   1.703   0.036
   17SOL     OW   49   0.949   2.490   1.589
   17SOL    HW1   50   0.913   2.454   1.675
   17SOL    HW2   51   0.956   2.590   1.595
   18SOL     OW   52   0.620   0.634   1.513
   18SOL    HW1   53   0.655   0.604   1.602
   18SOL    HW2   54   0.697   0.652   1.452
   19SOL     OW   55   1.717   1.576   0.847
   19SOL    HW1   56   1.809   1.547   0.873
   19SOL    HW2   57   1.724   1.655   0.786
   20SOL     OW   58   2.441   1.976   0.272
   20SOL    HW1   59   2.428   2.075   0.278
   20SOL    HW2   60   2.539   1.956   0.269
   21SOL     OW   61   1.164   0.532   2.438
   21SOL    HW1   62   1.177   0.629   2.455
   21SOL    HW2   63   1.165   0.514   2.340
   22SOL     OW   64   0.448   1.875   0.268
   22SOL    HW1   65   0.544   1.885   0.294
   22SOL    HW2   66   0.423   1.778   0.274
   23SOL     OW   67   2.276   0.488   0.588
   23SOL    HW1   68   2.316   0.404   0.550
   23SOL    HW2   69   2.226   0.466   0.672
   24SOL     OW   70   1.326   1.044   1.179
   24SOL    HW1   71   1.373   0.979   1.239
   24SOL    HW2   72   1.381   1.127   1.170
   25SOL     OW   73   1.753   0.112   0.279
   25SOL    HW1   74   1.663   0.104   0.322
   25SOL    HW2   75   1.812   0.169   0.336
   26SOL     OW   76   3.070   2.110   1.953
   26SOL    HW1   77   3.097   2.202   1.925
   26SOL    HW2   78   3.040   2.058   1.873
   27SOL     OW   79   2.108   0.540   2.874
   27SOL    HW1   80   2.181   0.546   2.943
   27SOL    HW2   81   2.027   0.588   2.908
   28SOL     OW   82   0.596   2.455   1.933
   28SOL    HW1   83   0.598   2.552   1.956
   28SOL    HW2   84   0.505   2.418   1.953
   29SOL     OW   85   2.631   0.219   1.069
   29SOL    HW1   86   2.620   0.259   0.977
   29SOL    HW2   87   2.599   0.284   1.137
   30SOL     OW   88   2.039   2.422   1.110
   30SOL    HW1   89   2.123   2.403   1.059
   30SOL    HW2   90   1.997   2.336   1.140
   31SOL     OW   91   0.361   2.650   3.166
   31SOL    HW1   92   0.449   2.609   3.144
   31SOL    HW2   93   0.294   2.624   3.096
   32SOL     OW   94   2.118   0.641   0.761
   32SOL    HW1   95   2.069   0.562   0.800
   32SOL    HW2   96   2.210   0.645   0.800
   33SOL     OW   97   1.883   2.516   1.235
   33SOL    HW1   98   1.966   2.525   1.291
   33SOL    HW2   99   1.816   2.584   1.264
   34SOL     OW  100   1.386   1.298   0.410
   34SOL    HW1  101   1.403   1.215   0.463
   34SOL    HW2  102   1.312   1.350   0.451
   35SOL     OW  103   2.734   1.046   1.887
   35SOL    HW1  104   2.643   1.035   1.847
   35SOL    HW2  105   2.803   1.005   1.826
   36SOL     OW  106   1.099   0.563   2.116
   36SOL    HW1  107   1.068   0.469   2.106
   36SOL    HW2  108   1.023   0.625   2.100
   37SOL     OW  109   0.096   2.356   2.179
   37SOL    HW1  110   0.188   2.330   2.148
   37SOL    HW2  111   0.034   2.360   2.100
   38SOL     OW  112   2.615   1.329   2.539
   38SOL    HW1  113   2.571   1.351   2.452
   38SOL    HW2  114   2.603   1.405   2.603
   39SOL     OW  115   2.145   0.083   0.859
   39SOL    HW1  116   2.238   0.073   0.895
   39SOL    HW2  117   2.116  -0.003   0.818
   40SOL     OW  118   0.270   2.435   0.328
   40SOL    HW1  119   0.312   2.358   0.375
   40SOL    HW2  120   0.179   2.452   0.367
   41SOL     OW  121   0.545   0.705   2.471
   41SOL    HW1  122   0.508   0.642   2.539
   41SOL    HW2  123   0.522   0.799   2.496
   42SOL     OW  124   0.026   1.132   2.248
   42SOL    HW1  125   0.014   1.034   2.228
   42SOL    HW2  126   0.113   1.163   2.210
   43SOL     OW  127   0.361   0.781   1.693
   43SOL    HW1  128   0.265   0.752   1.703
   43SOL    HW2  129   0.364   0.879   1.678
   44SOL     OW  130   2.841   2.962   1.086
   44SOL    HW1  131   2.780   2.887   1.062
   44SOL    HW2  132   2.787   3.042   1.112
   45SOL     OW  133   2.320   3.198   2.099
   45SOL    HW1  134   2.316   3.121   2.162
   45SOL    HW2  135   2.256   3.183   2.024
   46SOL     OW  136   1.115   0.350   1.401
   46SOL    HW1  137   1.054   0.421   1.366
   46SOL    HW2  138   1.204   0.391   1.424
   47SOL     OW  139   0.304   1.668   2.624
   47SOL    HW1  140   0.347   1.753   2.652
   47SOL    HW2  141   0.351   1.591   2.668
   48SOL     OW  142   1.134   2.853   0.856
   48SOL    HW1  143   1.077   2.936   0.851
   48SOL    HW2  144   1.230   2.879   0.853
   49SOL     OW  145   1.936   1.959   3.089
   49SOL    HW1  146   1.947   1.861   3.103
   49SOL    HW2  147   2.025   2.003   3.086
   50SOL     OW  148   1.532   2.443   1.352
   50SOL    HW1  149   1.580   2.519   1.308
   50SOL    HW2  150   1.541   2.451   1.451
   51SOL     OW  151   2.509   0.654   0.728
   51SOL    HW1  152   2.451   0.605   0.663
   51SOL    HW2  153   2.516   0.602   0.813
   52SOL     OW  154   2.005   1.734   0.895
   52SOL    HW1  155   1.912   1.771   0.890
   52SOL    HW2  156   2.001   1.639   0.928
   53SOL     OW  157   2.417   1.916   2.581
   53SOL    HW1  158   2.465   1.832   2.555
   53SOL    HW2  159   2.318   1.900   2.577
   54SOL     OW  160   0.091   2.487   0.565
   54SOL    HW1  161   0.015   2.551   0.552
   54SOL    HW2  162   0.054   2.395   0.583
   55SOL     OW  163   1.461   2.826   1.136
   55SOL    HW1  164   1.427   2.919   1.147
   55SOL    HW2  165   1.461   2.800   1.040
   56SOL     OW  166   1.833   0.480   2.298
   56SOL    HW1  167   1.912   0.523   2.343
   56SOL    HW2  168   1.795   0.543   2.231
   57SOL     OW  169   2.894   0.974   0.674
   57SOL    HW1  170   2.952   0.976   0.593
   57SOL    HW2  171   2.853   0.883   0.683
   58SOL     OW  172   1.981   1.346   1.422
   58SOL    HW1  173   2.002   1.435   1.463
   58SOL    HW2  174   1.883   1.328   1.430
   59SOL     OW  175   0.662   0.908   0.020
   59SOL    HW1  176   0.566   0.900   0.047
   59SOL    HW2  177   0.688   1.005   0.021
   60SOL     OW  178   1.866   0.406   0.672
   60SOL    HW1  179   1.827   0.415   0.763
   60SOL    HW2  180   1.914   0.318   0.664
   61SOL     OW  181   2.612   2.213   2.541
   61SOL    HW1  182   2.540   2.149   2.566
   61SOL    HW2  183   2.676   2.222   2.617
   62SOL     OW  184   0.282   3.013   2.917
   62SOL    HW1  185   0.354   2.955   2.955
   62SOL    HW2  186   0.319   3.070   2.844
   63SOL     OW  187   0.825   1.170   1.556
   63SOL    HW1  188   0.845   1.082   1.599
   63SOL    HW2  189   0.910   1.220   1.540
   64SOL     OW  190   3.142   2.526   1.487
   64SOL    HW1  191   3.177   2.435   1.508
   64SOL    HW2  192   3.215   2.583   1.449
   65SOL     OW  193   3.101   0.130   0.779
   65SOL    HW1  194   3.130   0.195   0.849
   65SOL    HW2  195   3.106   0.037   0.816
   66SOL     OW  196   2.769   0.667   1.311
   66SOL    HW1  197   2.754   0.568   1.306
   66SOL    HW2  198   2.689   0.711   1.352
   67SOL     OW  199   2.005   0.229   2.859
   67SOL    HW1  200   2.082   0.260   2.804
   67SOL    HW2  201   1.926   0.211   2.800
   68SOL     OW  202   1.133   0.670   1.552
   68SOL    HW1  203   1.219   0.673   1.602
   68SOL    HW2  204   1.063   0.721   1.602
   69SOL     OW  205   0.153   1.515   1.322
   69SOL    HW1  206   0.053   1.516   1.328
   69SOL    HW2  207   0.186   1.421   1.330
   70SOL     OW  208   2.444   0.762   0.103
   70SOL    HW1  209   2.532   0.737   0.145
   70SOL    HW2  210   2.406   0.681   0.057
   71SOL     OW  211   0.238   0.238   1.590
   71SOL    HW1  212   0.315   0.222   1.528
   71SOL    HW2  213   0.180   0.158   1.593
   72SOL     OW  214   1.537   1.082  -0.016
   72SOL    HW1  215   1.574   1.175  -0.017
   72SOL    HW2  216   1.611   1.017  -0.000
   73SOL     OW  217   2.026   0.427   3.057
   73SOL    HW1  218   2.104   0.366   3.072
   73SOL    HW2  219   1.942   0.372   3.053
   74SOL     OW  220   0.623   2.403   2.780
   74SOL    HW1  221   0.540   2.452   2.806
   74SOL    HW2  222   0.645   2.423   2.685
   75SOL     OW  223   2.647   2.242   3.014
   75SOL    HW1  224   2.703   2.208   3.089
   75SOL    HW2  225   2.552   2.212   3.027
   76SOL     OW  226   2.271   2.562   2.651
   76SOL    HW1  227   2.266   2.660   2.671
   76SOL    HW2  228   2.180   2.521   2.659
   77SOL     OW  229   2.848   1.642   0.013
   77SOL    HW1  230   2.887   1.557   0.046
   77SOL    HW2  231   2.749   1.632   0.004
   78SOL     OW  232   0.203   2.960   1.199
   78SOL    HW1  233   0.253   2.932   1.117
   78SOL    HW2  234   0.267   3.000   1.265
   79SOL     OW  235   0.495   3.155   2.300
   79SOL    HW1  236   0.493   3.057   2.321
   79SOL    HW2  237   0.587   3.182   2.273
   80SOL     OW  238   2.366   2.808   1.306
   80SOL    HW1  239   2.412   2.896   1.292
   80SOL    HW2  240   2.283   2.805   1.251
   81SOL     OW  241   0.990   2.394   2.859
   81SOL    HW1  242   1.014   2.430   2.769
   81SOL    HW2  243   1.055   2.322   2.884
   82SOL     OW  244   2.210   2.758   0.760
   82SOL    HW1  245   2.283   2.825   0.774
   82SOL    HW2  246   2.173   2.731   0.849
   83SOL     OW  247   2.966   1.136   1.240
   83SOL    HW1  248   2.960   1.220   1.294
   83SOL    HW2  249   2.873   1.105   1.218
   84SOL     OW  250   1.329   1.388   2.548
   84SOL    HW1  251   1.416   1.384   2.597
   84SOL    HW2  252   1.315   1.302   2.498
   85SOL     OW  253   1.522   0.780   1.856
   85SOL    HW1  254   1.468   0.860   1.883
   85SOL    HW2  255   1.581   0.753   1.932
   86SOL     OW  256   1.458   2.240   2.732
   86SOL    HW1  257   1.399   2.239   2.652
   86SOL    HW2  258   1.440   2.160   2.788
   87SOL     OW  259   1.559   0.382   2.996
   87SOL    HW1  260   1.594   0.473   3.022
   87SOL    HW2  261   1.462   0.389   2.973
   88SOL     OW  262   1.109   0.368   0.476
   88SOL    HW1  263   1.165   0.432   0.422
   88SOL    HW2  264   1.041   0.419   0.528
   89SOL     OW  265   2.468   0.640   2.634
   89SOL    HW1  266   2.466   0.541   2.648
   89SOL    HW2  267   2.388   0.667   2.581
   90SOL     OW  268   0.068   0.476   2.895
   90SOL    HW1  269   0.030   0.424   2.819
   90SOL    HW2  270   0.162   0.503   2.874
   91SOL     OW  271   0.600   2.971   1.011
   91SOL    HW1  272   0.552   2.926   0.936
   91SOL    HW2  273   0.561   3.062   1.027
   92SOL     OW  274   2.274   1.637   0.573
   92SOL    HW1  275   2.272   1.737   0.574
   92SOL    HW2  276   2.180   1.602   0.574
   93SOL     OW  277   0.104   3.067   0.984
   93SOL    HW1  278   0.035   3.140   0.993
   93SOL    HW2  279   0.058   2.979   0.977
   94SOL     OW  280   2.767   1.293   0.292
   94SOL    HW1  281   2.858   1.256   0.308
   94SOL    HW2  282   2.770   1.393   0.294
   95SOL     OW  283   2.597   1.184   0.502
   95SOL    HW1  284   2.681   1.132   0.483
   95SOL    HW2  285   2.546   1.140   0.576
   96SOL     OW  286   2.998   2.684   0.880
   96SOL    HW1  287   2.959   2.775   0.888
   96SOL    HW2  288   2.924   2.616   0.887
   97SOL     OW  289   1.669   2.756   0.795
   97SOL    HW1  290   1.588   2.747   0.853
   97SOL    HW2  291   1.751   2.748   0.850
   98SOL     OW  292   2.599   2.584   0.637
   98SOL    HW1  293   2.627   2.638   0.717
   98SOL    HW2  294   2.617   2.487   0.654
   99SOL     OW  295   1.286   0.388   0.748
   99SOL    HW1  296   1.190   0.388   0.719
   99SOL    HW2  297   1.315   0.294   0.767
  100SOL     OW  298   2.333   0.783   1.031
  100SOL    HW1  299   2.302   0.850   0.964
  100SOL    HW2  300   2.418   0.741   0.998
  101SOL     OW  301   1.327   0.766   1.434
  101SOL    HW1  302   1.423   0.740   1.432
  101SOL    HW2  303   1.299   0.801   1.345
  102SOL     OW  304   1.500   0.209   2.744
  102SOL    HW1  305   1.430   0.271   2.709
  102SOL    HW2  306   1.575   0.261   2.783
  103SOL     OW  307   1.420   2.219   1.395
  103SOL    HW1  308   1.370   2.305   1.406
  103SOL    HW2  309   1.356   2.146   1.372
  104SOL     OW  310   1.380   1.197   0.096
  104SOL    HW1  311   1.361   1.294   0.111
  104SOL    HW2  312   1.326   1.164   0.019
  105SOL     OW  313   2.255   1.457   2.812
  105SOL    HW1  314   2.159   1.482   2.800
  105SOL    HW2  315   2.261   1.375   2.868
  106SOL     OW  316   0.836   2.898   2.241
  106SOL    HW1  317   0.817   2.878   2.145
  106SOL    HW2  318   0.794   2.984   2.267
  107SOL     OW  319   2.511   2.246   2.153
  107SOL    HW1  320   2.529   2.149   2.139
  107SOL    HW2  321   2.598   2.295   2.160
  108SOL     OW  322   2.137   1.651   1.239
  108SOL    HW1  323   2.196   1.731   1.246
  108SOL    HW2  324   2.083   1.642   1.323
  109SOL     OW  325   0.114   0.910   0.093
  109SOL    HW1  326   0.181   0.943   0.159
  109SOL    HW2  327   0.150   0.922   0.000
  110SOL     OW  328   0.730   0.509   0.456
  110SOL    HW1  329   0.714   0.607   0.465
  110SOL    HW2  330   0.828   0.491   0.462
  111SOL     OW  331   1.308   2.604   0.401
  111SOL    HW1  332   1.258   2.525   0.366
  111SOL    HW2  333   1.406   2.589   0.390
  112SOL     OW  334   1.484   0.286   2.052
  112SOL    HW1  335   1.481   0.207   1.991
  112SOL    HW2  336   1.541   0.357   2.012
  113SOL     OW  337   2.869   2.406   2.243
  113SOL    HW1  338   2.769   2.405   2.245
  113SOL    HW2  339   2.902   2.473   2.309
  114SOL     OW  340   0.877   1.932  -0.019
  114SOL    HW1  341   0.805   1.982   0.030
  114SOL    HW2  342   0.847   1.839  -0.037
  115SOL     OW  343   0.829   1.431   1.974
  115SOL    HW1  344   0.735   1.457   1.950
  115SOL    HW2  345   0.846   1.451   2.070
  116SOL     OW  346   2.451   2.687  -0.037
  116SOL    HW1  347   2.519   2.614  -0.037
  116SOL    HW2  348   2.497   2.776  -0.036
  117SOL     OW  349   0.452   1.300   0.183
  117SOL    HW1  350   0.473   1.217   0.130
  117SOL    HW2  351   0.447   1.276   0.280
  118SOL     OW  352   0.467   1.005   0.375
  118SOL    HW1  353   0.395   1.074   0.368
  118SOL    HW2  354   0.556   1.051   0.380
  119SOL     OW  355   0.794   2.612   2.561
  119SOL    HW1  356   0.826   2.539   2.622
  119SOL    HW2  357   0.694   2.611   2.557
  120SOL     OW  358   2.724   0.863   0.504
  120SOL    HW1  359   2.666   0.916   0.566
  120SOL    HW2  360   2.689   0.869   0.411
  121SOL     OW  361   0.578   2.036   0.095
  121SOL    HW1  362   0.578   2.088   0.009
  121SOL    HW2  363   0.639   2.080   0.161
  122SOL     OW  364   1.784   1.552   1.097
  122SOL    HW1  365   1.718   1.535   1.170
  122SOL    HW2  366   1.872   1.578   1.137
  123SOL     OW  367   1.501   1.711   0.718
  123SOL    HW1  368   1.407   1.679   0.713
  123SOL    HW2  369   1.503   1.811   0.710
  124SOL     OW  370   2.972   1.012   2.482
  124SOL    HW1  371   2.964   1.067   2.398
  124SOL    HW2  372   3.011   0.922   2.459
  125SOL     OW  373   0.933   0.549   3.155
  125SOL    HW1  374   0.840   0.515   3.138
  125SOL    HW2  375   0.931   0.648   3.163
  126SOL     OW  376   2.501   3.006   0.901
  126SOL    HW1  377   2.565   2.932   0.923
  126SOL    HW2  378   2.407   2.972   0.910
  127SOL     OW  379   2.392  -0.004   0.688
  127SOL    HW1  380   2.300   0.036   0.687
  127SOL    HW2  381   2.460   0.068   0.697
  128SOL     OW  382   1.099   0.835   2.451
  128SOL    HW1  383   1.009   0.869   2.425
  128SOL    HW2  384   1.160   0.913   2.467
  129SOL     OW  385   1.415   1.095   1.746
  129SOL    HW1  386   1.423   1.189   1.712
  129SOL    HW2  387   1.387   1.097   1.842
  130SOL     OW  388   1.095   2.361   2.087
  130SOL    HW1  389   1.124   2.331   2.178
  130SOL    HW2  390   1.128   2.454   2.070
  131SOL     OW  391   2.905   1.002   0.371
  131SOL    HW1  392   3.002   0.978   0.378
  131SOL    HW2  393   2.882   1.020   0.276
  132SOL     OW  394   2.358   1.597   3.033
  132SOL    HW1  395   2.361   1.497   3.034
  132SOL    HW2  396   2.447   1.633   3.064
  133SOL     OW  397   0.704   2.409   1.332
  133SOL    HW1  398   0.753   2.465   1.265
  133SOL    HW2  399   0.726   2.313   1.317
  134SOL     OW  400   0.393   3.001   0.562
  134SOL    HW1  401   0.466   3.063   0.591
  134SOL    HW2  402   0.338   2.974   0.641
  135SOL     OW  403   3.003   1.488   2.740
  135SOL    HW1  404   3.019   1.586   2.740
  135SOL    HW2  405   3.090   1.440   2.740
  136SOL     OW  406   2.973   2.410   3.090
  136SOL    HW1  407   2.876   2.408   3.114
  136SOL    HW2  408   2.983   2.404   2.991
  137SOL     OW  409   0.530   1.559   0.284
  137SOL    HW1  410   0.607   1.623   0.281
  137SOL    HW2  411   0.565   1.466   0.291
  138SOL     OW  412   2.003   3.113   1.509
  138SOL    HW1  413   1.935   3.041   1.520
  138SOL    HW2  414   2.095   3.073   1.510
  139SOL     OW  415   1.394   1.811   2.889
  139SOL    HW1  416   1.358   1.904   2.889
  139SOL    HW2  417   1.319   1.746   2.895
  140SOL     OW  418   3.170   1.747   1.713
  140SOL    HW1  419   3.175   1.847   1.718
  140SOL    HW2  420   3.215   1.716   1.629
  141SOL     OW  421   2.600   0.340   0.683
  141SOL    HW1  422   2.513   0.373   0.644
  141SOL    HW2  423   2.595   0.241   0.695
  142SOL     OW  424   2.825   0.292   0.548
  142SOL    HW1  425   2.876   0.212   0.578
  142SOL    HW2  426   2.859   0.373   0.595
  143SOL     OW  427   1.691   1.577   1.645
  143SOL    HW1  428   1.776   1.544   1.604
  143SOL    HW2  429   1.685   1.676   1.635
  144SOL     OW  430   3.123   0.516   2.343
  144SOL    HW1  431   3.055   0.519   2.269
  144SOL    HW2  432   3.211   0.548   2.310
  145SOL     OW  433   0.286   1.116   0.587
  145SOL    HW1  434   0.198   1.070   0.592
  145SOL    HW2  435   0.271   1.215   0.589
  146SOL     OW  436   1.226   2.254   2.509
  146SOL    HW1  437   1.193   2.315   2.437
  146SOL    HW2  438   1.170   2.267   2.592
  147SOL     OW  439   0.940   2.090   2.132
  147SOL    HW1  440   0.962   2.183   2.104
  147SOL    HW2  441   0.861   2.092   2.193
  148SOL     OW  442   3.177   0.532   0.053
  148SOL    HW1  443   3.180   0.485   0.141
  148SOL    HW2  444   3.093   0.509   0.005
  149SOL     OW  445   1.669   1.379   0.252
  149SOL    HW1  446   1.707   1.471   0.257
  149SOL    HW2  447   1.666   1.349   0.157
  150SOL     OW  448   0.785   1.473   0.756
  150SOL    HW1  449   0.738   1.389   0.782
  150SOL    HW2  450   0.722   1.532   0.705
  151SOL     OW  451   3.131   2.939   1.443
  151SOL    HW1  452   3.214   2.890   1.470
  151SOL    HW2  453   3.058   2.873   1.425
  152SOL     OW  454   2.310   1.424   2.600
  152SOL    HW1  455   2.223   1.456   2.561
  152SOL    HW2  456   2.372   1.501   2.611
  153SOL     OW  457   0.439   2.943   2.510
  153SOL    HW1  458   0.415   2.856   2.468
  153SOL    HW2  459   0.361   2.979   2.561
  154SOL     OW  460   0.515   1.446   2.135
  154SOL    HW1  461   0.586   1.427   2.202
  154SOL    HW2  462   0.516   1.543   2.111
  155SOL     OW  463   0.712   2.791  -0.037
  155SOL    HW1  464   0.747   2.880  -0.007
  155SOL    HW2  465   0.615   2.785  -0.014
  156SOL     OW  466   1.893   0.334   1.264
  156SOL    HW1  467   1.906   0.239   1.295
  156SOL    HW2  468   1.812   0.338   1.205
  157SOL     OW  469   2.053   2.855   2.360
  157SOL    HW1  470   2.041   2.764   2.319
  157SOL    HW2  471   2.004   2.860   2.447
  158SOL     OW  472   0.323   2.288   1.815
  158SOL    HW1  473   0.322   2.294   1.914
  158SOL    HW2  474   0.388   2.355   1.778
  159SOL     OW  475   0.673   2.091   1.778
  159SOL    HW1  476   0.697   2.014   1.718
  159SOL    HW2  477   0.679   2.062   1.873
  160SOL     OW  478   0.851   1.272   1.265
  160SOL    HW1  479   0.772   1.322   1.301
  160SOL    HW2  480   0.913   1.335   1.219
  161SOL     OW  481   1.454   0.468   1.365
  161SOL    HW1  482   1.383   0.458   1.294
  161SOL    HW2  483   1.505   0.382   1.373
  162SOL     OW  484   1.043   2.545   2.498
  162SOL    HW1  485   1.120   2.535   2.436
  162SOL    HW2  486   1.005   2.455   2.519
  163SOL     OW  487   0.571   0.912   0.872
  163SOL    HW1  488   0.474   0.933   0.886
  163SOL    HW2  489   0.608   0.969   0.799
  164SOL     OW  490   1.691   0.494   0.008
  164SOL    HW1  491   1.740   0.411  -0.019
  164SOL    HW2  492   1.596   0.471   0.029
  165SOL     OW  493   2.756   2.368   2.473
  165SOL    HW1  494   2.794   2.287   2.429
  165SOL    HW2  495   2.809   2.390   2.555
  166SOL     OW  496   0.614   3.194   0.494
  166SOL    HW1  497   0.681   3.126   0.522
  166SOL    HW2  498   0.609   3.197   0.394
  167SOL     OW  499   3.137   2.111   0.938
  167SOL    HW1  500   3.144   2.202   0.978
  167SOL    HW2  501   3.137   2.118   0.838
  168SOL     OW  502   2.924   0.678   0.639
  168SOL    HW1  503   2.947   0.581   0.639
  168SOL    HW2  504   3.009   0.732   0.636
  169SOL     OW  505   0.256   2.620   1.268
  169SOL    HW1  506   0.189   2.667   1.324
  169SOL    HW2  507   0.297   2.684   1.203
  170SOL     OW  508   1.376   2.631   0.663
  170SOL    HW1  509   1.412   2.664   0.750
  170SOL    HW2  510   1.413   2.684   0.588
  171SOL     OW  511   0.014   2.059   2.902
  171SOL    HW1  512   0.095   2.003   2.881
  171SOL    HW2  513   0.020   2.146   2.854
  172SOL     OW  514   0.954   0.476   2.811
  172SOL    HW1  515   0.855   0.465   2.801
  172SOL    HW2  516   0.978   0.572   2.801
  173SOL     OW  517   1.392   3.073   2.058
  173SOL    HW1  518   1.471   3.103   2.005
  173SOL    HW2  519   1.405   2.979   2.089
  174SOL     OW  520   2.454   0.942   2.528
  174SOL    HW1  521   2.451   0.959   2.627
  174SOL    HW2  522   2.374   0.888   2.501
  175SOL     OW  523   1.851   1.082   2.467
  175SOL    HW1  524   1.886   1.153   2.405
  175SOL    HW2  525   1.772   1.038   2.425
  176SOL     OW  526   3.150   1.748   3.048
  176SOL    HW1  527   3.170   1.842   3.075
  176SOL    HW2  528   3.052   1.739   3.030
  177SOL     OW  529   2.033   2.424   1.566
  177SOL    HW1  530   1.938   2.392   1.571
  177SOL    HW2  531   2.094   2.345   1.568
  178SOL     OW  532   1.126   1.825   2.575
  178SOL    HW1  533   1.120   1.726   2.569
  178SOL    HW2  534   1.125   1.853   2.671
  179SOL     OW  535   1.217   1.002   0.620
  179SOL    HW1  536   1.118   1.013   0.608
  179SOL    HW2  537   1.236   0.972   0.713
  180SOL     OW  538   2.991   2.284   0.238
  180SOL    HW1  539   2.983   2.201   0.294
  180SOL    HW2  540   3.050   2.266   0.159
  181SOL     OW  541   1.970   2.838   1.605
  181SOL    HW1  542   1.992   2.760   1.664
  181SOL    HW2  543   1.872   2.840   1.587
  182SOL     OW  544   1.143   0.182   0.656
  182SOL    HW1  545   1.163   0.124   0.577
  182SOL    HW2  546   1.057   0.231   0.641
  183SOL     OW  547   1.079   1.259   0.602
  183SOL    HW1  548   1.065   1.355   0.579
  183SOL    HW2  549   0.990   1.214   0.611
  184SOL     OW  550   1.322   2.297   2.914
  184SOL    HW1  551   1.275   2.383   2.936
  184SOL    HW2  552   1.255   2.229   2.885
  185SOL     OW  553   1.776   1.165   0.425
  185SOL    HW1  554   1.740   1.171   0.518
  185SOL    HW2  555   1.707   1.127   0.364
  186SOL     OW  556   2.928   1.270   2.473
  186SOL    HW1  557   2.875   1.340   2.426
  186SOL    HW2  558   2.915   1.279   2.571
  187SOL     OW  559   1.244   2.124   0.409
  187SOL    HW1  560   1.153   2.150   0.377
  187SOL    HW2  561   1.297   2.207   0.428
  188SOL     OW  562   2.338   2.718   2.265
  188SOL    HW1  563   2.408   2.646   2.262
  188SOL    HW2  564   2.249   2.677   2.286
  189SOL     OW  565   2.830   2.362   1.457
  189SOL    HW1  566   2.793   2.270   1.472
  189SOL    HW2  567   2.756   2.428   1.456
  190SOL     OW  568   2.471   0.442   0.987
  190SOL    HW1  569   2.408   0.519   0.986
  190SOL    HW2  570   2.565   0.475   0.987
  191SOL     OW  571   2.852   0.842   1.070
  191SOL    HW1  572   2.792   0.763   1.073
  191SOL    HW2  573   2.798   0.926   1.069
  192SOL     OW  574   0.139   0.446   2.237
  192SOL    HW1  575   0.062   0.438   2.174
  192SOL    HW2  576   0.151   0.360   2.287
  193SOL     OW  577   0.367   2.159   2.521
  193SOL    HW1  578   0.366   2.092   2.596
  193SOL    HW2  579   0.414   2.119   2.442
  194SOL     OW  580   1.755   2.610   2.268
  194SOL    HW1  581   1.837   2.655   2.304
  194SOL    HW2  582   1.713   2.669   2.199
  195SOL     OW  583   1.880   2.331   1.795
  195SOL    HW1  584   1.888   2.430   1.790
  195SOL    HW2  585   1.972   2.290   1.793
  196SOL     OW  586   2.340   0.743   2.818
  196SOL    HW1  587   2.357   0.645   2.824
  196SOL    HW2  588   2.241   0.760   2.820
  197SOL     OW  589   0.775   0.511   0.685
  197SOL    HW1  590   0.806   0.605   0.672
  197SOL    HW2  591   0.675   0.508   0.690
  198SOL     OW  592   2.660   2.919   0.226
  198SOL    HW1  593   2.638   2.860   0.149
  198SOL    HW2  594   2.696   2.865   0.302
  199SOL     OW  595   0.541   0.301   0.572
  199SOL    HW1  596   0.548   0.394   0.536
  199SOL    HW2  597   0.570   0.300   0.667
  200SOL     OW  598   1.673   0.381   0.282
  200SOL    HW1  599   1.673   0.336   0.372
  200SOL    HW2  600   1.703   0.316   0.212
  201SOL     OW  601   1.109   1.117   0.055
  201SOL    HW1  602   1.033   1.163   0.101
  201SOL    HW2  603   1.081   1.087  -0.036
  202SOL     OW  604   0.314   0.713   0.231
  202SOL    HW1  605   0.217   0.730   0.217
  202SOL    HW2  606   0.367   0.791   0.198
  203SOL     OW  607   2.656   1.945   2.507
  203SOL    HW1  608   2.716   2.018   2.540
  203SOL    HW2  609   2.711   1.864   2.487
  204SOL     OW  610   2.046   2.324   0.533
  204SOL    HW1  611   1.982   2.353   0.604
  204SOL    HW2  612   2.023   2.231   0.503
  205SOL     OW  613   2.908   2.219   1.801
  205SOL    HW1  614   2.871   2.309   1.824
  205SOL    HW2  615   2.833   2.155   1.786
  206SOL     OW  616   2.598   1.705   2.876
  206SOL    HW1  617   2.669   1.641   2.907
  206SOL    HW2  618   2.582   1.774   2.947
  207SOL     OW  619   2.435   0.805   1.855
  207SOL    HW1  620   2.489   0.740   1.801
  207SOL    HW2  621   2.394   0.757   1.933
  208SOL     OW  622   0.683   0.217   2.434
  208SOL    HW1  623   0.712   0.121   2.432
  208SOL    HW2  624   0.607   0.227   2.499
  209SOL     OW  625   1.778   3.025   2.497
  209SOL    HW1  626   1.727   3.004   2.580
  209SOL    HW2  627   1.795   3.123   2.492
  210SOL     OW  628   1.522   1.479   0.768
  210SOL    HW1  629   1.482   1.456   0.679
  210SOL    HW2  630   1.494   1.412   0.836
  211SOL     OW  631   1.986   1.735   2.696
  211SOL    HW1  632   1.957   1.640   2.681
  211SOL    HW2  633   1.906   1.794   2.702
  212SOL     OW  634   1.223   1.078   0.983
  212SOL    HW1  635   1.268   1.001   0.938
  212SOL    HW2  636   1.167   1.128   0.916
  213SOL     OW  637   1.637   1.199   2.489
  213SOL    HW1  638   1.698   1.274   2.465
  213SOL    HW2  639   1.543   1.233   2.498
  214SOL     OW  640   1.976   2.438   0.892
  214SOL    HW1  641   2.003   2.486   0.809
  214SOL    HW2  642   1.884   2.467   0.919
  215SOL     OW  643   2.184   1.724   2.504
  215SOL    HW1  644   2.170   1.672   2.588
  215SOL    HW2  645   2.272   1.698   2.463
  216SOL     OW  646   2.420   0.043   2.516
  216SOL    HW1  647   2.431   0.141   2.530
  216SOL    HW2  648   2.418  -0.003   2.605
  217SOL     OW  649   1.565   2.320   0.920
  217SOL    HW1  650   1.599   2.233   0.956
  217SOL    HW2  651   1.465   2.320   0.919
  218SOL     OW  652   2.435   0.050   1.232
  218SOL    HW1  653   2.498  -0.003   1.175
  218SOL    HW2  654   2.474   0.141   1.250
  219SOL     OW  655   1.516   1.632   0.044
  219SOL    HW1  656   1.566   1.600  -0.037
  219SOL    HW2  657   1.446   1.698   0.016
  220SOL     OW  658   0.109   3.197   3.062
  220SOL    HW1  659   0.068   3.108   3.043
  220SOL    HW2  660   0.204   3.185   3.090
  221SOL     OW  661   0.055   2.519   1.833
  221SOL    HW1  662   0.015   2.466   1.908
  221SOL    HW2  663   0.015   2.489   1.746
  222SOL     OW  664   0.800   2.660   2.865
  222SOL    HW1  665   0.881   2.717   2.876
  222SOL    HW2  666   0.719   2.713   2.888
  223SOL     OW  667   1.844   2.570   2.754
  223SOL    HW1  668   1.926   2.537   2.707
  223SOL    HW2  669   1.824   2.663   2.724
  224SOL     OW  670   0.452   2.734   1.885
  224SOL    HW1  671   0.409   2.644   1.888
  224SOL    HW2  672   0.439   2.774   1.795
  225SOL     OW  673   1.534   3.191   0.664
  225SOL    HW1  674   1.633   3.197   0.649
  225SOL    HW2  675   1.515   3.196   0.762
  226SOL     OW  676   0.304   2.743   2.237
  226SOL    HW1  677   0.314   2.712   2.332
  226SOL    HW2  678   0.321   2.841   2.232
  227SOL     OW  679   1.142   2.763   0.577
  227SOL    HW1  680   1.210   2.775   0.649
  227SOL    HW2  681   1.167   2.816   0.497
  228SOL     OW  682   1.399   0.113   3.100
  228SOL    HW1  683   1.313   0.095   3.052
  228SOL    HW2  684   1.445   0.026   3.118
  229SOL     OW  685   1.457   2.603   2.046
  229SOL    HW1  686   1.508   2.574   2.127
  229SOL    HW2  687   1.431   2.522   1.993
  230SOL     OW  688   0.087   2.608   1.575
  230SOL    HW1  689   0.028   2.689   1.570
  230SOL    HW2  690   0.081   2.557   1.490
  231SOL     OW  691   1.197   1.023   2.069
  231SOL    HW1  692   1.288   1.052   2.038
  231SOL    HW2  693   1.153   1.097   2.120
  232SOL     OW  694   0.659   0.709   2.271
  232SOL    HW1  695   0.619   0.618   2.278
  232SOL    HW2  696   0.586   0.777   2.266
  233SOL     OW  697   1.079   1.527   0.919
  233SOL    HW1  698   1.046   1.504   0.827
  233SOL    HW2  699   1.003   1.520   0.984
  234SOL     OW  700   1.889   1.134   0.971
  234SOL    HW1  701   1.806   1.079   0.961
  234SOL    HW2  702   1.969   1.074   0.978
  235SOL     OW  703   0.318   1.675   0.766
  235SOL    HW1  704   0.380   1.720   0.702
  235SOL    HW2  705   0.225   1.707   0.750
  236SOL     OW  706   2.597   1.458   0.457
  236SOL    HW1  707   2.497   1.469   0.459
  236SOL    HW2  708   2.640   1.548   0.460
  237SOL     OW  709   2.690   0.674   2.639
  237SOL    HW1  710   2.784   0.705   2.621
  237SOL    HW2  711   2.678   0.582   2.604
  238SOL     OW  712   1.173   1.609   3.058
  238SOL    HW1  713   1.114   1.658   2.994
  238SOL    HW2  714   1.251   1.570   3.009
  239SOL     OW  715   1.841   1.956   0.691
  239SOL    HW1  716   1.772   2.008   0.742
  239SOL    HW2  717   1.919   2.016   0.672
  240SOL     OW  718   1.534   0.679   1.632
  240SOL    HW1  719   1.459   0.615   1.618
  240SOL    HW2  720   1.499   0.772   1.637
  241SOL     OW  721   1.895   0.353   2.570
  241SOL    HW1  722   1.963   0.411   2.525
  241SOL    HW2  723   1.916   0.257   2.551
  242SOL     OW  724   2.151   2.113   1.159
  242SOL    HW1  725   2.234   2.057   1.149
  242SOL    HW2  726   2.176   2.209   1.160
  243SOL     OW  727   0.848   1.544   1.503
  243SOL    HW1  728   0.892   1.634   1.504
  243SOL    HW2  729   0.749   1.556   1.499
  244SOL     OW  730   1.008   0.511   1.082
  244SOL    HW1  731   0.934   0.548   1.138
  244SOL    HW2  732   0.974   0.435   1.027
  245SOL     OW  733   2.432   1.999   0.997
  245SOL    HW1  734   2.362   1.960   0.936
  245SOL    HW2  735   2.485   1.925   1.038
  246SOL     OW  736   2.405   0.069   3.036
  246SOL    HW1  737   2.385   0.003   2.964
  246SOL    HW2  738   2.386   0.161   3.003
  247SOL     OW  739   1.966   2.008   0.404
  247SOL    HW1  740   1.894   2.063   0.446
  247SOL    HW2  741   2.044   2.001   0.466
  248SOL     OW  742   2.004   0.065   0.641
  248SOL    HW1  743   2.059   0.147   0.658
  248SOL    HW2  744   1.921   0.068   0.696
  249SOL     OW  745   1.249   2.995   2.605
  249SOL    HW1  746   1.268   3.093   2.610
  249SOL    HW2  747   1.150   2.980   2.603
  250SOL     OW  748   0.699   0.813   0.313
  250SOL    HW1  749   0.690   0.875   0.235
  250SOL    HW2  750   0.617   0.757   0.322
  251SOL     OW  751   2.139   1.841   2.985
  251SOL    HW1  752   2.166   1.829   3.081
  251SOL    HW2  753   2.091   1.758   2.954
  252SOL     OW  754   2.115   1.152   0.659
  252SOL    HW1  755   2.059   1.173   0.579
  252SOL    HW2  756   2.202   1.111   0.630
  253SOL     OW  757   2.255   2.943   2.383
  253SOL    HW1  758   2.281   3.030   2.424
  253SOL    HW2  759   2.281   2.943   2.286
  254SOL     OW  760   0.563   2.214   2.644
  254SOL    HW1  761   0.572   2.187   2.740
  254SOL    HW2  762   0.587   2.136   2.585
  255SOL     OW  763   3.004   2.656   2.542
  255SOL    HW1  764   2.946   2.576   2.556
  255SOL    HW2  765   2.958   2.721   2.482
  256SOL     OW  766   1.768   0.789   3.080
  256SOL    HW1  767   1.733   0.744   3.162
  256SOL    HW2  768   1.790   0.885   3.101
  257SOL     OW  769   2.392   1.784   2.836
  257SOL    HW1  770   2.339   1.868   2.820
  257SOL    HW2  771   2.330   1.706   2.841
  258SOL     OW  772   2.054   2.733   1.078
  258SOL    HW1  773   2.118   2.656   1.073
  258SOL    HW2  774   1.978   2.709   1.138
  259SOL     OW  775   1.500   0.568   1.014
  259SOL    HW1  776   1.592   0.531   1.002
  259SOL    HW2  777   1.432   0.496   1.001
  260SOL     OW  778   0.789   0.920   2.483
  260SOL    HW1  779   0.849   0.931   2.562
  260SOL    HW2  780   0.739   0.835   2.491
  261SOL     OW  781   1.406   1.715   1.566
  261SOL    HW1  782   1.474   1.643   1.552
  261SOL    HW2  783   1.387   1.724   1.664
  262SOL     OW  784   1.855   0.381   1.475
  262SOL    HW1  785   1.951   0.387   1.502
  262SOL    HW2  786   1.821   0.472   1.451
  263SOL     OW  787   1.668   2.029   1.919
  263SOL    HW1  788   1.568   2.020   1.917
  263SOL    HW2  789   1.710   1.942   1.893
  264SOL     OW  790   1.975   1.268   2.636
  264SOL    HW1  791   1.974   1.332   2.559
  264SOL    HW2  792   1.883   1.260   2.674
  265SOL     OW  793   0.783   0.093   2.172
  265SOL    HW1  794   0.790  -0.003   2.200
  265SOL    HW2  795   0.695   0.130   2.201
  266SOL     OW  796   0.389   2.096   0.492
  266SOL    HW1  797   0.415   2.032   0.419
  266SOL    HW2  798   0.313   2.152   0.462
  267SOL     OW  799   0.089   2.920   1.410
  267SOL    HW1  800   0.014   2.880   1.463
  267SOL    HW2  801   0.057   3.001   1.362
  268SOL     OW  802   2.723   0.074   0.227
  268SOL    HW1  803   2.773   0.159   0.240
  268SOL    HW2  804   2.785  -0.004   0.237
  269SOL     OW  805   1.933   1.069   2.894
  269SOL    HW1  806   1.858   1.133   2.876
  269SOL    HW2  807   1.992   1.106   2.966
  270SOL     OW  808   1.109   3.119   0.463
  270SOL    HW1  809   1.162   3.034   0.463
  270SOL    HW2  810   1.171   3.197   0.462
  271SOL     OW  811   2.241   0.408   0.199
  271SOL    HW1  812   2.166   0.345   0.220
  271SOL    HW2  813   2.203   0.495   0.168
  272SOL     OW  814   2.974   1.623   1.470
  272SOL    HW1  815   2.980   1.557   1.396
  272SOL    HW2  816   3.048   1.606   1.536
  273SOL     OW  817   2.723   1.178   0.013
  273SOL    HW1  818   2.789   1.147   0.082
  273SOL    HW2  819   2.634   1.135   0.032
  274SOL     OW  820   1.254   1.106   2.418
  274SOL    HW1  821   1.340   1.057   2.399
  274SOL    HW2  822   1.206   1.123   2.332
  275SOL     OW  823   3.038   2.452   1.958
  275SOL    HW1  824   2.988   2.377   2.001
  275SOL    HW2  825   3.128   2.420   1.930
  276SOL     OW  826   3.047   3.168   0.958
  276SOL    HW1  827   2.961   3.134   0.996
  276SOL    HW2  828   3.033   3.199   0.864
  277SOL     OW  829   1.275   1.989   2.582
  277SOL    HW1  830   1.247   2.035   2.498
  277SOL    HW2  831   1.242   2.041   2.661
  278SOL     OW  832   0.311   1.306   3.018
  278SOL    HW1  833   0.404   1.340   3.003
  278SOL    HW2  834   0.260   1.311   2.932
  279SOL     OW  835   2.711   0.094   1.702
  279SOL    HW1  836   2.692  -0.001   1.726
  279SOL    HW2  837   2.807   0.114   1.718
  280SOL     OW  838   0.427   2.491   1.067
  280SOL    HW1  839   0.387   2.427   1.133
  280SOL    HW2  840   0.355   2.529   1.009
  281SOL     OW  841   1.175   2.037   2.174
  281SOL    HW1  842   1.267   2.016   2.207
  281SOL    HW2  843   1.139   2.116   2.223
  282SOL     OW  844   2.522   1.989   2.292
  282SOL    HW1  845   2.613   2.029   2.303
  282SOL    HW2  846   2.527   1.890   2.308
  283SOL     OW  847   2.487   2.430   1.031
  283SOL    HW1  848   2.427   2.393   0.960
  283SOL    HW2  849   2.451   2.406   1.121
  284SOL     OW  850   1.470   0.568   0.459
  284SOL    HW1  851   1.542   0.502   0.480
  284SOL    HW2  852   1.381   0.523   0.465
  285SOL     OW  853   2.950   0.312   2.265
  285SOL    HW1  854   2.859   0.297   2.304
  285SOL    HW2  855   2.970   0.238   2.200
  286SOL     OW  856   2.095   2.446   1.893
  286SOL    HW1  857   2.162   2.517   1.914
  286SOL    HW2  858   2.122   2.361   1.937
  287SOL     OW  859   2.067   0.581   0.018
  287SOL    HW1  860   1.987   0.559  -0.037
  287SOL    HW2  861   2.150   0.569  -0.037
  288SOL     OW  862   1.805   2.244   3.163
  288SOL    HW1  863   1.705   2.243   3.159
  288SOL    HW2  864   1.837   2.339   3.158
  289SOL     OW  865   2.089   0.649   1.693
  289SOL    HW1  866   2.088   0.726   1.629
  289SOL    HW2  867   2.078   0.564   1.642
  290SOL     OW  868   0.294   0.079   0.728
  290SOL    HW1  869   0.309   0.110   0.823
  290SOL    HW2  870   0.196   0.079   0.708
  291SOL     OW  871   1.780   3.192   0.903
  291SOL    HW1  872   1.774   3.149   0.814
  291SOL    HW2  873   1.688   3.198   0.944
  292SOL     OW  874   2.795   2.071   0.420
  292SOL    HW1  875   2.773   2.006   0.493
  292SOL    HW2  876   2.788   2.164   0.455
  293SOL     OW  877   2.634   1.766   0.491
  293SOL    HW1  878   2.537   1.749   0.506
  293SOL    HW2  879   2.645   1.827   0.412
  294SOL     OW  880   0.108  -0.003   1.175
  294SOL    HW1  881   0.015   0.031   1.184
  294SOL    HW2  882   0.173   0.073   1.185
  295SOL     OW  883   0.592   1.966   2.276
  295SOL    HW1  884   0.690   1.971   2.292
  295SOL    HW2  885   0.570   2.010   2.188
  296SOL     OW  886   0.112   2.733   2.948
  296SOL    HW1  887   0.048   2.781   3.008
  296SOL    HW2  888   0.199   2.781   2.946
  297SOL     OW  889   0.015   1.357   1.656
  297SOL    HW1  890   0.103   1.326   1.693
  297SOL    HW2  891   0.030   1.400   1.568
  298SOL     OW  892   0.667   0.952   1.670
  298SOL    HW1  893   0.611   0.873   1.693
  298SOL    HW2  894   0.656   0.973   1.573
  299SOL     OW  895   2.126   3.043   0.904
  299SOL    HW1  896   2.206   3.094   0.871
  299SOL    HW2  897   2.144   2.945   0.897
  300SOL     OW  898   2.718   1.721   1.780
  300SOL    HW1  899   2.814   1.695   1.766
  300SOL    HW2  900   2.686   1.774   1.701
  301SOL     OW  901   0.381   1.373   1.148
  301SOL    HW1  902   0.426   1.288   1.120
  301SOL    HW2  903   0.450   1.439   1.177
  302SOL     OW  904   2.048   0.658   0.321
  302SOL    HW1  905   2.025   0.629   0.228
  302SOL    HW2  906   2.145   0.681   0.326
  303SOL     OW  907   2.446   1.539   1.669
  303SOL    HW1  908   2.512   1.466   1.684
  303SOL    HW2  909   2.494   1.626   1.656
  304SOL     OW  910   2.686   1.994   0.073
  304SOL    HW1  911   2.609   2.029   0.020
  304SOL    HW2  912   2.667   1.899   0.100
  305SOL     OW  913   2.583   2.595   0.377
  305SOL    HW1  914   2.534   2.529   0.434
  305SOL    HW2  915   2.623   2.666   0.434
  306SOL     OW  916   1.058   1.453   2.252
  306SOL    HW1  917   1.069   1.377   2.316
  306SOL    HW2  918   1.147   1.481   2.216
  307SOL     OW  919   1.230   0.387   1.150
  307SOL    HW1  920   1.137   0.351   1.162
  307SOL    HW2  921   1.225   0.479   1.111
  308SOL     OW  922   1.838   2.912   1.947
  308SOL    HW1  923   1.762   2.868   1.996
  308SOL    HW2  924   1.897   2.959   2.012
  309SOL     OW  925   2.367   2.907   1.984
  309SOL    HW1  926   2.438   2.845   2.016
  309SOL    HW2  927   2.304   2.927   2.059
  310SOL     OW  928   1.563   0.593   0.754
  310SOL    HW1  929   1.511   0.519   0.795
  310SOL    HW2  930   1.660   0.566   0.748
  311SOL     OW  931   2.871   3.070   0.072
  311SOL    HW1  932   2.883   3.160   0.115
  311SOL    HW2  933   2.948   3.052   0.011
  312SOL     OW  934   1.697   2.889   0.221
  312SOL    HW1  935   1.621   2.843   0.266
  312SOL    HW2  936   1.671   2.983   0.198
  313SOL     OW  937   1.043   0.742   1.908
  313SOL    HW1  938   1.025   0.840   1.907
  313SOL    HW2  939   0.978   0.695   1.849
  314SOL     OW  940   0.931   2.530   1.993
  314SOL    HW1  941   0.951   2.489   1.903
  314SOL    HW2  942   0.847   2.584   1.987
  315SOL     OW  943   0.978   1.065   1.237
  315SOL    HW1  944   1.057   1.086   1.294
  315SOL    HW2  945   0.997   1.093   1.143
  316SOL     OW  946   0.364   2.390   0.035
  316SOL    HW1  947   0.401   2.317  -0.022
  316SOL    HW2  948   0.299   2.445  -0.019
  317SOL     OW  949   3.133   0.969   2.992
  317SOL    HW1  950   3.215   0.918   2.965
  317SOL    HW2  951   3.127   0.973   3.091
  318SOL     OW  952   1.093   2.028   0.204
  318SOL    HW1  953   1.072   1.932   0.221
  318SOL    HW2  954   1.191   2.039   0.189
  319SOL     OW  955   1.819   2.325   2.026
  319SOL    HW1  956   1.913   2.358   2.020
  319SOL    HW2  957   1.819   2.225   2.029
  320SOL     OW  958   2.154   1.891   0.935
  320SOL    HW1  959   2.117   1.975   0.974
  320SOL    HW2  960   2.172   1.825   1.008
  321SOL     OW  961   3.077   2.099   2.915
  321SOL    HW1  962   3.172   2.125   2.896
  321SOL    HW2  963   3.022   2.181   2.930
  322SOL     OW  964   0.850   0.486   2.246
  322SOL    HW1  965   0.820   0.570   2.201
  322SOL    HW2  966   0.936   0.504   2.295
  323SOL     OW  967   0.584   1.026   2.692
  323SOL    HW1  968   0.526   1.052   2.769
  323SOL    HW2  969   0.656   1.095   2.679
  324SOL     OW  970   2.337   0.190   0.285
  324SOL    HW1  971   2.340   0.212   0.187
  324SOL    HW2  972   2.346   0.274   0.338
  325SOL     OW  973   1.314   0.718   0.388
  325SOL    HW1  974   1.326   0.702   0.290
  325SOL    HW2  975   1.340   0.812   0.410
  326SOL     OW  976   2.115   3.174   1.316
  326SOL    HW1  977   2.167   3.101   1.272
  326SOL    HW2  978   2.035   3.197   1.260
  327SOL     OW  979   0.409   0.529   2.949
  327SOL    HW1  980   0.458   0.616   2.949
  327SOL    HW2  981   0.474   0.454   2.949
  328SOL     OW  982   1.705   0.814   2.203
  328SOL    HW1  983   1.792   0.765   2.200
  328SOL    HW2  984   1.630   0.748   2.211
  329SOL     OW  985   2.104   0.693   2.357
  329SOL    HW1  986   2.020   0.712   2.305
  329SOL    HW2  987   2.120   0.594   2.360
  330SOL     OW  988   0.730   0.354   2.098
  330SOL    HW1  989   0.814   0.305   2.124
  330SOL    HW2  990   0.752   0.421   2.026
  331SOL     OW  991   2.526   0.505   3.165
  331SOL    HW1  992   2.569   0.595   3.160
  331SOL    HW2  993   2.597   0.434   3.164
  332SOL     OW  994   0.028   2.245   2.362
  332SOL    HW1  995   0.015   2.306   2.441
  332SOL    HW2  996   0.015   2.151   2.391
  333SOL     OW  997   0.848   3.184   1.022
  333SOL    HW1  998   0.934   3.195   1.072
  333SOL    HW2  999   0.792   3.116   1.068
  334SOL     OW 1000   2.855   0.353   2.589
  334SOL    HW1 1001   2.759   0.374   2.608
  334SOL    HW2 1002   2.882   0.394   2.502
  335SOL     OW 1003   3.211   0.880   1.451
  335SOL    HW1 1004   3.147   0.914   1.520
  335SOL    HW2 1005   3.211   0.941   1.372
  336SOL     OW 1006   0.552   1.089   0.597
  336SOL    HW1 1007   0.490   1.010   0.595
  336SOL    HW2 1008   0.498   1.173   0.595
  337SOL     OW 1009   2.546   0.837   2.836
  337SOL    HW1 1010   2.481   0.913   2.845
  337SOL    HW2 1011   2.616   0.861   2.770
  338SOL     OW 1012   2.741   1.308   1.777
  338SOL    HW1 1013   2.686   1.280   1.697
  338SOL    HW2 1014   2.819   1.246   1.787
  339SOL     OW 1015   0.467   0.404   3.164
  339SOL    HW1 1016   0.525   0.485   3.161
  339SOL    HW2 1017   0.373   0.429   3.143
  340SOL     OW 1018   0.562   2.686   2.224
  340SOL    HW1 1019   0.549   2.765   2.165
  340SOL    HW2 1020   0.573   2.604   2.168
  341SOL     OW 1021   0.076   3.111   1.711
  341SOL    HW1 1022   0.031   3.199   1.696
  341SOL    HW2 1023   0.015   3.037   1.682
  342SOL     OW 1024   0.943   0.950   0.247
  342SOL    HW1 1025   0.909   0.857   0.243
  342SOL    HW2 1026   0.866   1.014   0.252
  343SOL     OW 1027   1.591   0.790  -0.009
  343SOL    HW1 1028   1.492   0.783  -0.021
  343SOL    HW2 1029   1.634   0.704  -0.037
  344SOL     OW 1030   0.550   0.397   2.751
  344SOL    HW1 1031   0.632   0.342   2.739
  344SOL    HW2 1032   0.470   0.337   2.756
  345SOL     OW 1033   1.147   1.796   1.083
  345SOL    HW1 1034   1.056   1.835   1.072
  345SOL    HW2 1035   1.145   1.700   1.056
  346SOL     OW 1036   1.554   1.716   1.841
  346SOL    HW1 1037   1.513   1.807   1.843
  346SOL    HW2 1038   1.653   1.724   1.848
  347SOL     OW 1039   0.542   0.218   1.774
  347SOL    HW1 1040   0.461   0.160   1.765
  347SOL    HW2 1041   0.620   0.163   1.804
  348SOL     OW 1042   3.212   0.771   0.460
  348SOL    HW1 1043   3.204   0.709   0.538
  348SOL    HW2 1044   3.215   0.866   0.493
  349SOL     OW 1045   1.794   0.784   2.861
  349SOL    HW1 1046   1.862   0.857   2.852
  349SOL    HW2 1047   1.838   0.700   2.892
  350SOL     OW 1048   0.492   2.662   1.610
  350SOL    HW1 1049   0.503   2.588   1.676
  350SOL    HW2 1050   0.566   2.728   1.621
  351SOL     OW 1051   2.129   1.501   2.334
  351SOL    HW1 1052   2.214   1.548   2.313
  351SOL    HW2 1053   2.079   1.552   2.405
  352SOL     OW 1054   0.432   2.348   1.426
  352SOL    HW1 1055   0.435   2.447   1.441
  352SOL    HW2 1056   0.503   2.323   1.360
  353SOL     OW 1057   3.133   0.166   3.065
  353SOL    HW1 1058   3.185   0.251   3.077
  353SOL    HW2 1059   3.037   0.188   3.048
  354SOL     OW 1060   0.213   0.092   2.378
  354SOL    HW1 1061   0.233   0.183   2.415
  354SOL    HW2 1062   0.125   0.093   2.331
  355SOL     OW 1063   1.242   0.917   1.764
  355SOL    HW1 1064   1.219   0.955   1.854
  355SOL    HW2 1065   1.184   0.838   1.744
  356SOL     OW 1066   0.743   2.852   2.435
  356SOL    HW1 1067   0.656   2.802   2.426
  356SOL    HW2 1068   0.819   2.787   2.431
  357SOL     OW 1069   3.117   1.633   2.467
  357SOL    HW1 1070   3.163   1.545   2.455
  357SOL    HW2 1071   3.081   1.663   2.379
  358SOL     OW 1072   2.251   0.027   2.025
  358SOL    HW1 1073   2.338   0.031   1.976
  358SOL    HW2 1074   2.207   0.116   2.022
  359SOL     OW 1075   0.868   2.731   1.317
  359SOL    HW1 1076   0.795   2.763   1.256
  359SOL    HW2 1077   0.834   2.653   1.370
  360SOL     OW 1078   2.822   1.040   2.138
  360SOL    HW1 1079   2.897   0.982   2.106
  360SOL    HW2 1080   2.766   0.989   2.203
  361SOL     OW 1081   0.775   1.313   0.553
  361SOL    HW1 1082   0.722   1.330   0.471
  361SOL    HW2 1083   0.847   1.381   0.562
  362SOL     OW 1084   1.579   0.982   2.958
  362SOL    HW1 1085   1.553   1.078   2.947
  362SOL    HW2 1086   1.675   0.970   2.933
  363SOL     OW 1087   0.826   3.078   3.164
  363SOL    HW1 1088   0.873   2.996   3.129
  363SOL    HW2 1089   0.821   3.147   3.092
  364SOL     OW 1090   0.211   1.930   2.465
  364SOL    HW1 1091   0.283   1.948   2.398
  364SOL    HW2 1092   0.216   1.834   2.495
  365SOL     OW 1093   1.143   2.699   1.897
  365SOL    HW1 1094   1.047   2.726   1.911
  365SOL    HW2 1095   1.198   2.731   1.974
  366SOL     OW 1096   0.925   2.803   1.717
  366SOL    HW1 1097   0.897   2.873   1.651
  366SOL    HW2 1098   0.879   2.819   1.804
  367SOL     OW 1099   0.885   2.432   2.290
  367SOL    HW1 1100   0.854   2.339   2.273
  367SOL    HW2 1101   0.941   2.463   2.214
  368SOL     OW 1102   2.799   1.371   0.511
  368SOL    HW1 1103   2.864   1.443   0.489
  368SOL    HW2 1104   2.847   1.284   0.526
  369SOL     OW 1105   2.858   2.994   1.365
  369SOL    HW1 1106   2.759   2.985   1.378
  369SOL    HW2 1107   2.894   3.061   1.429
  370SOL     OW 1108   2.425   2.005   0.509
  370SOL    HW1 1109   2.359   1.930   0.510
  370SOL    HW2 1110   2.517   1.968   0.522
  371SOL     OW 1111   3.214   1.562   1.398
  371SOL    HW1 1112   3.210   1.613   1.312
  371SOL    HW2 1113   3.186   1.467   1.382
  372SOL     OW 1114   0.951   0.808   1.433
  372SOL    HW1 1115   0.880   0.879   1.423
  372SOL    HW2 1116   0.907   0.719   1.445
  373SOL     OW 1117   2.122   0.486   1.898
  373SOL    HW1 1118   2.066   0.569   1.896
  373SOL    HW2 1119   2.063   0.406   1.906
  374SOL     OW 1120   2.204   0.846   0.577
  374SOL    HW1 1121   2.253   0.761   0.560
  374SOL    HW2 1122   2.171   0.884   0.490
  375SOL     OW 1123   1.232   1.539   0.127
  375SOL    HW1 1124   1.196   1.506   0.215
  375SOL    HW2 1125   1.219   1.469   0.057
  376SOL     OW 1126   1.854   0.923   0.681
  376SOL    HW1 1127   1.804   0.988   0.624
  376SOL    HW2 1128   1.949   0.955   0.692
  377SOL     OW 1129   3.155   2.783   1.062
  377SOL    HW1 1130   3.211   2.867   1.063
  377SOL    HW2 1131   3.215   2.704   1.073
  378SOL     OW 1132   1.254   0.172   0.257
  378SOL    HW1 1133   1.267   0.267   0.231
  378SOL    HW2 1134   1.167   0.138   0.222
  379SOL     OW 1135   1.408   1.336   2.259
  379SOL    HW1 1136   1.455   1.423   2.273
  379SOL    HW2 1137   1.466   1.262   2.294
  380SOL     OW 1138   2.142   1.483   0.757
  380SOL    HW1 1139   2.045   1.481   0.733
  380SOL    HW2 1140   2.176   1.389   0.764
  381SOL     OW 1141   2.358   2.319   2.816
  381SOL    HW1 1142   2.285   2.313   2.749
  381SOL    HW2 1143   2.381   2.227   2.849
  382SOL     OW 1144   2.815   1.921   0.769
  382SOL    HW1 1145   2.873   1.841   0.753
  382SOL    HW2 1146   2.721   1.900   0.741
  383SOL     OW 1147   2.481   2.813   2.565
  383SOL    HW1 1148   2.417   2.869   2.512
  383SOL    HW2 1149   2.547   2.873   2.611
  384SOL     OW 1150   2.319   0.328   2.500
  384SOL    HW1 1151   2.351   0.423   2.500
  384SOL    HW2 1152   2.219   0.327   2.499
  385SOL     OW 1153   2.535   1.270   1.883
  385SOL    HW1 1154   2.473   1.348   1.870
  385SOL    HW2 1155   2.481   1.186   1.890
  386SOL     OW 1156   0.308   1.361   2.261
  386SOL    HW1 1157   0.335   1.458   2.261
  386SOL    HW2 1158   0.208   1.355   2.262
  387SOL     OW 1159   0.476   0.708   1.908
  387SOL    HW1 1160   0.546   0.688   1.840
  387SOL    HW2 1161   0.455   0.806   1.907
  388SOL     OW 1162   1.288   0.882   2.875
  388SOL    HW1 1163   1.363   0.921   2.928
  388SOL    HW2 1164   1.304   0.784   2.862
  389SOL     OW 1165   1.272   0.310   2.261
  389SOL    HW1 1166   1.228   0.260   2.336
  389SOL    HW2 1167   1.223   0.292   2.176
  390SOL     OW 1168   2.333   2.475   2.074
  390SOL    HW1 1169   2.417   2.469   2.127
  390SOL    HW2 1170   2.291   2.564   2.087
  391SOL     OW 1171   1.512   2.043   2.514
  391SOL    HW1 1172   1.489   2.089   2.428
  391SOL    HW2 1173   1.479   1.949   2.510
  392SOL     OW 1174   1.151   1.456   1.513
  392SOL    HW1 1175   1.165   1.555   1.513
  392SOL    HW2 1176   1.054   1.436   1.528
  393SOL     OW 1177   0.595   2.271   0.305
  393SOL    HW1 1178   0.551   2.223   0.381
  393SOL    HW2 1179   0.526   2.320   0.252
  394SOL     OW 1180   0.559   1.776   0.031
  394SOL    HW1 1181   0.521   1.705   0.091
  394SOL    HW2 1182   0.619   1.734  -0.037
  395SOL     OW 1183   2.128   0.257   1.512
  395SOL    HW1 1184   2.119   0.158   1.502
  395SOL    HW2 1185   2.196   0.277   1.583
  396SOL     OW 1186   1.090   1.977   2.930
  396SOL    HW1 1187   1.038   1.933   2.857
  396SOL    HW2 1188   1.168   2.027   2.891
  397SOL     OW 1189   1.440   0.890   1.029
  397SOL    HW1 1190   1.416   0.824   0.959
  397SOL    HW2 1191   1.537   0.913   1.022
  398SOL     OW 1192   2.501   2.183   0.701
  398SOL    HW1 1193   2.539   2.275   0.687
  398SOL    HW2 1194   2.567   2.127   0.751
  399SOL     OW 1195   2.218   1.236   1.185
  399SOL    HW1 1196   2.129   1.277   1.162
  399SOL    HW2 1197   2.291   1.300   1.160
  400SOL     OW 1198   2.248   1.308   0.091
  400SOL    HW1 1199   2.281   1.354   0.174
  400SOL    HW2 1200   2.149   1.318   0.085
  401SOL     OW 1201   1.062   2.754   2.418
  401SOL    HW1 1202   1.111   2.754   2.505
  401SOL    HW2 1203   1.028   2.846   2.398
  402SOL     OW 1204   0.706   1.862   2.722
  402SOL    HW1 1205   0.702   1.953   2.680
  402SOL    HW2 1206   0.636   1.856   2.793
  403SOL     OW 1207   1.040   0.390   2.558
  403SOL    HW1 1208   1.028   0.479   2.603
  403SOL    HW2 1209   0.972   0.326   2.593
  404SOL     OW 1210   1.854   1.659   2.266
  404SOL    HW1 1211   1.852   1.757   2.286
  404SOL    HW2 1212   1.766   1.618   2.290
  405SOL     OW 1213   0.092   0.864   1.627
  405SOL    HW1 1214   0.151   0.945   1.621
  405SOL    HW2 1215   0.015   0.883   1.688
  406SOL     OW 1216   1.225   1.408   3.162
  406SOL    HW1 1217   1.323   1.430   3.163
  406SOL    HW2 1218   1.214   1.309   3.161
  407SOL     OW 1219   2.046   1.890   1.281
  407SOL    HW1 1220   2.051   1.911   1.184
  407SOL    HW2 1221   1.960   1.844   1.301
  408SOL     OW 1222   0.895   1.615   2.783
  408SOL    HW1 1223   0.914   1.578   2.874
  408SOL    HW2 1224   0.805   1.586   2.753
  409SOL     OW 1225   2.034  -0.005   1.949
  409SOL    HW1 1226   1.938   0.019   1.936
  409SOL    HW2 1227   2.086   0.019   1.866
  410SOL     OW 1228   0.284   1.640   2.994
  410SOL    HW1 1229   0.278   1.659   3.092
  410SOL    HW2 1230   0.319   1.547   2.979
  411SOL     OW 1231   1.181   1.256   1.196
  411SOL    HW1 1232   1.189   1.336   1.255
  411SOL    HW2 1233   1.118   1.275   1.121
  412SOL     OW 1234   1.877   1.633   0.325
  412SOL    HW1 1235   1.881   1.589   0.415
  412SOL    HW2 1236   1.913   1.570   0.256
  413SOL     OW 1237   0.799   1.875   1.302
  413SOL    HW1 1238   0.842   1.788   1.328
  413SOL    HW2 1239   0.871   1.942   1.283
  414SOL     OW 1240   2.832   0.732   0.268
  414SOL    HW1 1241   2.883   0.709   0.185
  414SOL    HW2 1242   2.879   0.696   0.348
  415SOL     OW 1243   1.280   1.370   1.949
  415SOL    HW1 1244   1.237   1.280   1.944
  415SOL    HW2 1245   1.216   1.439   1.915
  416SOL     OW 1246   0.332   0.683   2.340
  416SOL    HW1 1247   0.291   0.614   2.400
  416SOL    HW2 1248   0.285   0.771   2.354
  417SOL     OW 1249   1.347   2.619   2.539
  417SOL    HW1 1250   1.313   2.673   2.461
  417SOL    HW2 1251   1.288   2.634   2.618
  418SOL     OW 1252   1.440   0.102   1.353
  418SOL    HW1 1253   1.456   0.005   1.370
  418SOL    HW2 1254   1.342   0.120   1.357
  419SOL     OW 1255   2.804   1.281   1.091
  419SOL    HW1 1256   2.807   1.378   1.112
  419SOL    HW2 1257   2.882   1.257   1.033
  420SOL     OW 1258   1.842   0.677   2.673
  420SOL    HW1 1259   1.870   0.581   2.669
  420SOL    HW2 1260   1.923   0.735   2.679
  421SOL     OW 1261   0.613   1.553   2.631
  421SOL    HW1 1262   0.547   1.478   2.637
  421SOL    HW2 1263   0.564   1.640   2.635
  422SOL     OW 1264   1.386   1.786   1.248
  422SOL    HW1 1265   1.356   1.782   1.153
  422SOL    HW2 1266   1.332   1.853   1.298
  423SOL     OW 1267   1.085   1.932   1.331
  423SOL    HW1 1268   1.113   1.838   1.309
  423SOL    HW2 1269   1.164   1.993   1.322
  424SOL     OW 1270   0.033   1.798   2.303
  424SOL    HW1 1271   0.063   1.892   2.287
  424SOL    HW2 1272   0.104   1.734   2.272
  425SOL     OW 1273   1.060   0.917   3.095
  425SOL    HW1 1274   1.005   0.972   3.158
  425SOL    HW2 1275   1.147   0.894   3.137
  426SOL     OW 1276   1.800   3.094   1.323
  426SOL    HW1 1277   1.871   3.052   1.266
  426SOL    HW2 1278   1.762   3.025   1.384
  427SOL     OW 1279   1.768   0.804   2.439
  427SOL    HW1 1280   1.818   0.718   2.428
  427SOL    HW2 1281   1.773   0.833   2.535
  428SOL     OW 1282   2.856   0.193   0.817
  428SOL    HW1 1283   2.888   0.201   0.912
  428SOL    HW2 1284   2.761   0.162   0.816
  429SOL     OW 1285   1.501   1.067   2.100
  429SOL    HW1 1286   1.481   1.165   2.090
  429SOL    HW2 1287   1.526   1.029   2.011
  430SOL     OW 1288   3.181   2.333   0.766
  430SOL    HW1 1289   3.144   2.287   0.685
  430SOL    HW2 1290   3.214   2.423   0.740
  431SOL     OW 1291   0.890   1.099   2.759
  431SOL    HW1 1292   0.932   1.014   2.792
  431SOL    HW2 1293   0.939   1.131   2.678
  432SOL     OW 1294   1.925   1.852   1.598
  432SOL    HW1 1295   1.878   1.911   1.664
  432SOL    HW2 1296   1.943   1.903   1.514
  433SOL     OW 1297   2.681   1.621   2.671
  433SOL    HW1 1298   2.582   1.611   2.678
  433SOL    HW2 1299   2.704   1.716   2.652
  434SOL     OW 1300   2.798   0.411   2.840
  434SOL    HW1 1301   2.864   0.459   2.781
  434SOL    HW2 1302   2.840   0.328   2.876
  435SOL     OW 1303   2.176   0.264   0.015
  435SOL    HW1 1304   2.190   0.349  -0.036
  435SOL    HW2 1305   2.232   0.191  -0.025
  436SOL     OW 1306   0.195   0.419   1.951
  436SOL    HW1 1307   0.096   0.431   1.957
  436SOL    HW2 1308   0.236   0.433   2.041
  437SOL     OW 1309   2.054   1.062   2.643
  437SOL    HW1 1310   2.057   1.081   2.544
  437SOL    HW2 1311   1.959   1.044   2.670
  438SOL     OW 1312   0.261   2.196   2.759
  438SOL    HW1 1313   0.178   2.181   2.705
  438SOL    HW2 1314   0.237   2.244   2.843
  439SOL     OW 1315   0.726   2.610   1.729
  439SOL    HW1 1316   0.709   2.513   1.749
  439SOL    HW2 1317   0.724   2.663   1.814
  440SOL     OW 1318   1.202   0.858   0.185
  440SOL    HW1 1319   1.164   0.951   0.189
  440SOL    HW2 1320   1.127   0.792   0.178
  441SOL     OW 1321   1.616   1.280   1.472
  441SOL    HW1 1322   1.585   1.192   1.436
  441SOL    HW2 1323   1.555   1.308   1.547
  442SOL     OW 1324   2.641   1.510   1.997
  442SOL    HW1 1325   2.549   1.532   1.964
  442SOL    HW2 1326   2.708   1.533   1.927
  443SOL     OW 1327   0.885   1.665   0.284
  443SOL    HW1 1328   0.852   1.611   0.362
  443SOL    HW2 1329   0.837   1.752   0.281
  444SOL     OW 1330   1.903   1.185   1.868
  444SOL    HW1 1331   1.990   1.138   1.852
  444SOL    HW2 1332   1.903   1.273   1.820
  445SOL     OW 1333   1.895   0.841   1.214
  445SOL    HW1 1334   1.969   0.890   1.261
  445SOL    HW2 1335   1.913   0.743   1.216
  446SOL     OW 1336   2.266   0.860   0.285
  446SOL    HW1 1337   2.264   0.959   0.300
  446SOL    HW2 1338   2.239   0.840   0.191
  447SOL     OW 1339   2.527   2.831   2.268
  447SOL    HW1 1340   2.568   2.780   2.192
  447SOL    HW2 1341   2.572   2.804   2.354
  448SOL     OW 1342   1.768   2.711   1.819
  448SOL    HW1 1343   1.756   2.801   1.776
  448SOL    HW2 1344   1.687   2.688   1.872
  449SOL     OW 1345   1.425   2.905   0.344
  449SOL    HW1 1346   1.395   2.997   0.370
  449SOL    HW2 1347   1.359   2.838   0.377
  450SOL     OW 1348   0.409   0.925   2.972
  450SOL    HW1 1349   0.484   0.859   2.973
  450SOL    HW2 1350   0.332   0.887   2.921
  451SOL     OW 1351   2.020   3.019   2.192
  451SOL    HW1 1352   2.110   3.060   2.208
  451SOL    HW2 1353   1.949   3.090   2.198
  452SOL     OW 1354   2.237   2.062   1.872
  452SOL    HW1 1355   2.264   1.971   1.840
  452SOL    HW2 1356   2.234   2.125   1.794
  453SOL     OW 1357   0.062   2.834   2.456
  453SOL    HW1 1358   0.135   2.852   2.391
  453SOL    HW2 1359   0.098   2.786   2.536
  454SOL     OW 1360   1.204   0.428   3.074
  454SOL    HW1 1361   1.179   0.391   3.163
  454SOL    HW2 1362   1.261   0.510   3.086
  455SOL     OW 1363   2.586   0.838   1.103
  455SOL    HW1 1364   2.561   0.927   1.066
  455SOL    HW2 1365   2.629   0.850   1.192
  456SOL     OW 1366   1.093   0.824   2.689
  456SOL    HW1 1367   1.121   0.920   2.683
  456SOL    HW2 1368   0.995   0.819   2.706
  457SOL     OW 1369   0.343   1.852   3.009
  457SOL    HW1 1370   0.441   1.872   3.003
  457SOL    HW2 1371   0.291   1.937   3.007
  458SOL     OW 1372   1.976   0.193   2.099
  458SOL    HW1 1373   1.888   0.198   2.052
  458SOL    HW2 1374   1.988   0.101   2.136
  459SOL     OW 1375   0.279   2.879  -0.035
  459SOL    HW1 1376   0.233   2.791  -0.037
  459SOL    HW2 1377   0.378   2.865  -0.027
  460SOL     OW 1378   1.659   0.121   3.039
  460SOL    HW1 1379   1.599   0.120   2.959
  460SOL    HW2 1380   1.621   0.183   3.108
  461SOL     OW 1381   1.058   1.646   2.031
  461SOL    HW1 1382   1.030   1.644   2.127
  461SOL    HW2 1383   0.980   1.623   1.973
  462SOL     OW 1384   3.191   1.577   1.925
  462SOL    HW1 1385   3.143   1.568   1.838
  462SOL    HW2 1386   3.129   1.614   1.994
  463SOL     OW 1387   2.443   1.207   0.346
  463SOL    HW1 1388   2.378   1.135   0.368
  463SOL    HW2 1389   2.397   1.296   0.352
  464SOL     OW 1390   0.936   1.837   2.383
  464SOL    HW1 1391   0.981   1.750   2.400
  464SOL    HW2 1392   0.991   1.911   2.422
  465SOL     OW 1393   3.039   1.586   0.736
  465SOL    HW1 1394   3.097   1.668   0.735
  465SOL    HW2 1395   3.011   1.563   0.643
  466SOL     OW 1396   0.610   1.776   0.555
  466SOL    HW1 1397   0.629   1.873   0.543
  466SOL    HW2 1398   0.696   1.727   0.571
  467SOL     OW 1399   2.584   0.823   2.117
  467SOL    HW1 1400   2.587   0.729   2.082
  467SOL    HW2 1401   2.533   0.825   2.203
  468SOL     OW 1402   2.803   1.284   0.776
  468SOL    HW1 1403   2.721   1.317   0.731
  468SOL    HW2 1404   2.837   1.202   0.730
  469SOL     OW 1405   2.720   2.667   1.033
  469SOL    HW1 1406   2.718   2.597   0.961
  469SOL    HW2 1407   2.805   2.659   1.085
  470SOL     OW 1408   1.762   0.669   1.663
  470SOL    HW1 1409   1.862   0.661   1.660
  470SOL    HW2 1410   1.736   0.765   1.667
  471SOL     OW 1411   2.435   2.776   1.516
  471SOL    HW1 1412   2.391   2.686   1.518
  471SOL    HW2 1413   2.534   2.765   1.525
  472SOL     OW 1414   1.286   3.055   1.023
  472SOL    HW1 1415   1.299   3.155   1.024
  472SOL    HW2 1416   1.188   3.035   1.019
  473SOL     OW 1417   2.485   2.630   0.929
  473SOL    HW1 1418   2.393   2.636   0.890
  473SOL    HW2 1419   2.535   2.715   0.908
  474SOL     OW 1420   1.135   0.888   1.088
  474SOL    HW1 1421   1.168   0.882   1.182
  474SOL    HW2 1422   1.078   0.809   1.068
  475SOL     OW 1423   1.554   2.926   1.562
  475SOL    HW1 1424   1.498   2.845   1.577
  475SOL    HW2 1425   1.650   2.901   1.560
  476SOL     OW 1426   0.015   1.625   2.884
  476SOL    HW1 1427   0.058   1.694   2.826
  476SOL    HW2 1428   0.084   1.572   2.932
  477SOL     OW 1429   0.547   2.848   0.526
  477SOL    HW1 1430   0.596   2.882   0.445
  477SOL    HW2 1431   0.613   2.811   0.591
  478SOL     OW 1432   2.191   1.359   1.748
  478SOL    HW1 1433   2.162   1.453   1.767
  478SOL    HW2 1434   2.115   1.297   1.763
  479SOL     OW 1435   1.977   0.166   1.745
  479SOL    HW1 1436   1.886   0.174   1.785
  479SOL    HW2 1437   2.023   0.255   1.750
  480SOL     OW 1438   0.727   0.347   0.832
  480SOL    HW1 1439   0.685   0.258   0.851
  480SOL    HW2 1440   0.827   0.338   0.838
  481SOL     OW 1441   1.873   2.612   3.087
  481SOL    HW1 1442   1.807   2.586   3.157
  481SOL    HW2 1443   1.940   2.676   3.125
  482SOL     OW 1444   1.623   2.232   2.531
  482SOL    HW1 1445   1.570   2.317   2.538
  482SOL    HW2 1446   1.654   2.205   2.622
  483SOL     OW 1447   0.684   1.259   1.718
  483SOL    HW1 1448   0.707   1.174   1.765
  483SOL    HW2 1449   0.590   1.254   1.684
  484SOL     OW 1450   1.900   2.907   2.680
  484SOL    HW1 1451   1.963   2.830   2.675
  484SOL    HW2 1452   1.822   2.883   2.737
  485SOL     OW 1453   2.556   3.172   1.171
  485SOL    HW1 1454   2.648   3.184   1.207
  485SOL    HW2 1455   2.559   3.119   1.086
  486SOL     OW 1456   0.835   0.220   0.590
  486SOL    HW1 1457   0.766   0.273   0.541
  486SOL    HW2 1458   0.795   0.136   0.624
  487SOL     OW 1459   0.445   0.006   1.607
  487SOL    HW1 1460   0.345  -0.003   1.599
  487SOL    HW2 1461   0.478   0.068   1.535
  488SOL     OW 1462   3.104   3.034   2.753
  488SOL    HW1 1463   3.082   3.056   2.658
  488SOL    HW2 1464   3.160   2.951   2.756
  489SOL     OW 1465   1.976   2.692   2.882
  489SOL    HW1 1466   2.056   2.749   2.863
  489SOL    HW2 1467   1.901   2.750   2.915
  490SOL     OW 1468   0.644   2.011   3.044
  490SOL    HW1 1469   0.574   2.046   3.106
  490SOL    HW2 1470   0.607   2.006   2.951
  491SOL     OW 1471   3.006   1.994   2.152
  491SOL    HW1 1472   2.934   1.939   2.109
  491SOL    HW2 1473   3.038   1.947   2.234
  492SOL     OW 1474   2.307   1.071   1.781
  492SOL    HW1 1475   2.299   1.057   1.880
  492SOL    HW2 1476   2.302   1.169   1.761
  493SOL     OW 1477   3.052   1.428   0.294
  493SOL    HW1 1478   3.143   1.467   0.304
  493SOL    HW2 1479   2.999   1.481   0.228
  494SOL     OW 1480   2.470   2.307   0.203
  494SOL    HW1 1481   2.550   2.366   0.213
  494SOL    HW2 1482   2.476   2.258   0.116
  495SOL     OW 1483   3.215   1.302   1.683
  495SOL    HW1 1484   3.188   1.298   1.779
  495SOL    HW2 1485   3.177   1.223   1.634
  496SOL     OW 1486   2.953   0.871   1.314
  496SOL    HW1 1487   2.962   0.772   1.302
  496SOL    HW2 1488   2.987   0.917   1.233
  497SOL     OW 1489   2.050   1.316   2.894
  497SOL    HW1 1490   1.977   1.370   2.853
  497SOL    HW2 1491   2.084   1.249   2.827
  498SOL     OW 1492   2.588   0.206   2.346
  498SOL    HW1 1493   2.529   0.157   2.282
  498SOL    HW2 1494   2.681   0.171   2.338
  499SOL     OW 1495   2.896   0.397   1.296
  499SOL    HW1 1496   2.865   0.315   1.248
  499SOL    HW2 1497   2.938   0.459   1.230
  500SOL     OW 1498   0.552   2.573   0.693
  500SOL    HW1 1499   0.477   2.548   0.754
  500SOL    HW2 1500   0.516   2.610   0.608
  501SOL     OW 1501   0.403   2.608   0.298
  501SOL    HW1 1502   0.427   2.595   0.394
  501SOL    HW2 1503   0.326   2.671   0.290
  502SOL     OW 1504   0.415   2.158   1.603
  502SOL    HW1 1505   0.372   2.068   1.597
  502SOL    HW2 1506   0.509   2.149   1.636
  503SOL     OW 1507   1.293   2.218   2.035
  503SOL    HW1 1508   1.289   2.311   1.998
  503SOL    HW2 1509   1.310   2.222   2.133
  504SOL     OW 1510   0.107   2.015   1.206
  504SOL    HW1 1511   0.015   1.978   1.210
  504SOL    HW2 1512   0.151   2.006   1.295
  505SOL     OW 1513   0.409   1.038   1.937
  505SOL    HW1 1514   0.465   1.054   1.856
  505SOL    HW2 1515   0.314   1.021   1.911
  506SOL     OW 1516   3.157   0.986   0.712
  506SOL    HW1 1517   3.215   0.905   0.710
  506SOL    HW2 1518   3.215   1.068   0.713
  507SOL     OW 1519   1.697   2.246   0.621
  507SOL    HW1 1520   1.656   2.156   0.615
  507SOL    HW2 1521   1.796   2.237   0.634
  508SOL     OW 1522   1.470   2.042   1.536
  508SOL    HW1 1523   1.568   2.057   1.548
  508SOL    HW2 1524   1.420   2.075   1.616
  509SOL     OW 1525   1.664   0.521   1.305
  509SOL    HW1 1526   1.619   0.608   1.323
  509SOL    HW2 1527   1.672   0.508   1.206
  510SOL     OW 1528   1.387   0.663   0.642
  510SOL    HW1 1529   1.441   0.746   0.629
  510SOL    HW2 1530   1.345   0.664   0.733
  511SOL     OW 1531   0.395   2.185   2.985
  511SOL    HW1 1532   0.450   2.266   2.965
  511SOL    HW2 1533   0.416   2.113   2.919
  512SOL     OW 1534   0.053   2.207   1.646
  512SOL    HW1 1535   0.015   2.298   1.630
  512SOL    HW2 1536   0.150   2.206   1.620
  513SOL     OW 1537   2.276   2.085   3.114
  513SOL    HW1 1538   2.245   2.069   3.020
  513SOL    HW2 1539   2.360   2.140   3.112
  514SOL     OW 1540   2.738   1.826   2.033
  514SOL    HW1 1541   2.717   1.858   2.125
  514SOL    HW2 1542   2.788   1.739   2.038
  515SOL     OW 1543   3.016   3.127   2.932
  515SOL    HW1 1544   2.945   3.197   2.942
  515SOL    HW2 1545   3.102   3.162   2.970
  516SOL     OW 1546   1.277   1.369   0.781
  516SOL    HW1 1547   1.200   1.306   0.792
  516SOL    HW2 1548   1.245   1.456   0.744
  517SOL     OW 1549   1.475   1.608   1.063
  517SOL    HW1 1550   1.529   1.553   1.000
  517SOL    HW2 1551   1.536   1.658   1.125
  518SOL     OW 1552   0.907   3.106   1.512
  518SOL    HW1 1553   0.907   3.012   1.478
  518SOL    HW2 1554   0.847   3.162   1.455
  519SOL     OW 1555   1.691   0.254   2.528
  519SOL    HW1 1556   1.661   0.185   2.594
  519SOL    HW2 1557   1.613   0.287   2.476
  520SOL     OW 1558   2.795   2.273   0.089
  520SOL    HW1 1559   2.703   2.297   0.057
  520SOL    HW2 1560   2.795   2.178   0.122
  521SOL     OW 1561   1.931   1.264   0.100
  521SOL    HW1 1562   1.908   1.272   0.003
  521SOL    HW2 1563   1.886   1.337   0.151
  522SOL     OW 1564   2.349   2.950   0.251
  522SOL    HW1 1565   2.379   3.045   0.260
  522SOL    HW2 1566   2.427   2.889   0.266
  523SOL     OW 1567   0.942   0.673   0.360
  523SOL    HW1 1568   0.865   0.641   0.305
  523SOL    HW2 1569   1.024   0.623   0.336
  524SOL     OW 1570   1.319   2.693   3.064
  524SOL    HW1 1571   1.313   2.678   3.163
  524SOL    HW2 1572   1.392   2.758   3.044
  525SOL     OW 1573   2.070   2.091   2.055
  525SOL    HW1 1574   2.004   2.026   2.017
  525SOL    HW2 1575   2.136   2.042   2.111
  526SOL     OW 1576   0.366   0.512   1.815
  526SOL    HW1 1577   0.300   0.583   1.840
  526SOL    HW2 1578   0.402   0.469   1.897
  527SOL     OW 1579   0.855   2.393   0.652
  527SOL    HW1 1580   0.927   2.462   0.643
  527SOL    HW2 1581   0.774   2.435   0.693
  528SOL     OW 1582   1.441   0.402   0.236
  528SOL    HW1 1583   1.482   0.491   0.253
  528SOL    HW2 1584   1.459   0.341   0.313
  529SOL     OW 1585   0.371   0.433   0.665
  529SOL    HW1 1586   0.356   0.523   0.624
  529SOL    HW2 1587   0.284   0.386   0.676
  530SOL     OW 1588   2.418   0.450   1.617
  530SOL    HW1 1589   2.318   0.463   1.618
  530SOL    HW2 1590   2.458   0.507   1.544
  531SOL     OW 1591   1.056   2.582   1.388
  531SOL    HW1 1592   1.076   2.639   1.309
  531SOL    HW2 1593   1.067   2.486   1.364
  532SOL     OW 1594   0.701   0.369   1.058
  532SOL    HW1 1595   0.748   0.458   1.056
  532SOL    HW2 1596   0.770   0.296   1.054
  533SOL     OW 1597   1.587   1.536   0.488
  533SOL    HW1 1598   1.575   1.446   0.447
  533SOL    HW2 1599   1.658   1.586   0.438
  534SOL     OW 1600   1.583   1.847   0.914
  534SOL    HW1 1601   1.653   1.917   0.923
  534SOL    HW2 1602   1.494   1.884   0.940
  535SOL     OW 1603   2.172   0.020   2.452
  535SOL    HW1 1604   2.207  -0.003   2.543
  535SOL    HW2 1605   2.217   0.103   2.419
  536SOL     OW 1606   2.372   2.643   3.162
  536SOL    HW1 1607   2.463   2.632   3.124
  536SOL    HW2 1608   2.320   2.559   3.151
  537SOL     OW 1609   3.037   0.670   3.015
  537SOL    HW1 1610   3.035   0.767   3.041
  537SOL    HW2 1611   3.121   0.651   2.964
  538SOL     OW 1612   1.450   2.000   0.579
  538SOL    HW1 1613   1.440   2.097   0.555
  538SOL    HW2 1614   1.545   1.972   0.566
  539SOL     OW 1615   1.303   0.076   2.759
  539SOL    HW1 1616   1.354   0.046   2.839
  539SOL    HW2 1617   1.258  -0.003   2.716
  540SOL     OW 1618   2.995   0.970   0.910
  540SOL    HW1 1619   2.933   1.046   0.890
  540SOL    HW2 1620   2.954   0.884   0.879
  541SOL     OW 1621   1.565   3.153   1.476
  541SOL    HW1 1622   1.658   3.182   1.499
  541SOL    HW2 1623   1.504   3.177   1.551
  542SOL     OW 1624   2.441   0.562   2.226
  542SOL    HW1 1625   2.417   0.515   2.311
  542SOL    HW2 1626   2.385   0.645   2.217
  543SOL     OW 1627   0.034   1.723   1.067
  543SOL    HW1 1628   0.017   1.813   1.028
  543SOL    HW2 1629   0.038   1.731   1.167
  544SOL     OW 1630   1.551   0.292   0.586
  544SOL    HW1 1631   1.514   0.223   0.523
  544SOL    HW2 1632   1.476   0.347   0.623
  545SOL     OW 1633   2.014   0.577   2.110
  545SOL    HW1 1634   2.107   0.604   2.134
  545SOL    HW2 1635   1.958   0.660   2.100
  546SOL     OW 1636   2.899   2.760   0.136
  546SOL    HW1 1637   2.882   2.858   0.136
  546SOL    HW2 1638   2.819   2.712   0.102
  547SOL     OW 1639   0.928   1.050   2.291
  547SOL    HW1 1640   0.991   1.127   2.280
  547SOL    HW2 1641   0.834   1.085   2.297
  548SOL     OW 1642   1.380   0.797   2.169
  548SOL    HW1 1643   1.451   0.821   2.103
  548SOL    HW2 1644   1.335   0.713   2.140
  549SOL     OW 1645   2.231   2.487   1.343
  549SOL    HW1 1646   2.161   2.419   1.320
  549SOL    HW2 1647   2.211   2.527   1.432
  550SOL     OW 1648   1.784   1.047   1.275
  550SOL    HW1 1649   1.783   1.130   1.331
  550SOL    HW2 1650   1.834   1.065   1.191
  551SOL     OW 1651   0.247   0.702   1.156
  551SOL    HW1 1652   0.286   0.785   1.195
  551SOL    HW2 1653   0.225   0.638   1.230
  552SOL     OW 1654   0.748   2.527   0.013
  552SOL    HW1 1655   0.662   2.542  -0.037
  552SOL    HW2 1656   0.743   2.572   0.102
  553SOL     OW 1657   0.996   1.881   2.092
  553SOL    HW1 1658   0.935   1.846   2.163
  553SOL    HW2 1659   0.967   1.847   2.003
  554SOL     OW 1660   2.551   2.655   1.194
  554SOL    HW1 1661   2.580   2.742   1.234
  554SOL    HW2 1662   2.476   2.617   1.249
  555SOL     OW 1663   0.669   0.986   1.928
  555SOL    HW1 1664   0.718   0.912   1.882
  555SOL    HW2 1665   0.602   0.947   1.991
  556SOL     OW 1666   3.064   0.232   1.180
  556SOL    HW1 1667   3.105   0.312   1.136
  556SOL    HW2 1668   3.083   0.234   1.278
  557SOL     OW 1669   0.015   2.638   0.817
  557SOL    HW1 1670   0.097   2.586   0.843
  557SOL    HW2 1671   0.022   2.731   0.852
  558SOL     OW 1672   0.097   1.306   1.999
  558SOL    HW1 1673   0.192   1.327   1.976
  558SOL    HW2 1674   0.082   1.208   1.992
  559SOL     OW 1675   2.261   2.155   0.920
  559SOL    HW1 1676   2.230   2.245   0.950
  559SOL    HW2 1677   2.334   2.165   0.853
  560SOL     OW 1678   2.396   2.357   3.105
  560SOL    HW1 1679   2.326   2.354   3.033
  560SOL    HW2 1680   2.471   2.417   3.076
  561SOL     OW 1681   0.063   1.130   1.787
  561SOL    HW1 1682   0.161   1.110   1.781
  561SOL    HW2 1683   0.015   1.053   1.828
  562SOL     OW 1684   2.345   2.700   0.173
  562SOL    HW1 1685   2.284   2.651   0.110
  562SOL    HW2 1686   2.307   2.698   0.265
  563SOL     OW 1687   3.158   0.707   1.226
  563SOL    HW1 1688   3.214   0.789   1.213
  563SOL    HW2 1689   3.215   0.634   1.264
  564SOL     OW 1690   0.319   2.240   1.235
  564SOL    HW1 1691   0.237   2.193   1.203
  564SOL    HW2 1692   0.400   2.196   1.194
  565SOL     OW 1693   0.235   1.579   1.036
  565SOL    HW1 1694   0.233   1.634   1.119
  565SOL    HW2 1695   0.328   1.547   1.019
  566SOL     OW 1696   2.787   2.314   2.835
  566SOL    HW1 1697   2.819   2.222   2.857
  566SOL    HW2 1698   2.864   2.369   2.803
  567SOL     OW 1699   0.026   1.385   2.779
  567SOL    HW1 1700   0.061   1.326   2.707
  567SOL    HW2 1701   0.015   1.331   2.863
  568SOL     OW 1702   2.055   0.368   0.502
  568SOL    HW1 1703   2.043   0.454   0.550
  568SOL    HW2 1704   2.129   0.376   0.435
  569SOL     OW 1705   2.694   1.248   2.830
  569SOL    HW1 1706   2.732   1.337   2.805
  569SOL    HW2 1707   2.762   1.196   2.882
  570SOL     OW 1708   2.614   1.411   2.192
  570SOL    HW1 1709   2.550   1.466   2.245
  570SOL    HW2 1710   2.663   1.348   2.253
  571SOL     OW 1711   2.124   0.693   1.254
  571SOL    HW1 1712   2.090   0.610   1.208
  571SOL    HW2 1713   2.193   0.737   1.197
  572SOL     OW 1714   0.654   1.891   0.832
  572SOL    HW1 1715   0.681   1.812   0.777
  572SOL    HW2 1716   0.729   1.917   0.893
  573SOL     OW 1717   1.561   0.237   0.934
  573SOL    HW1 1718   1.519   0.308   0.877
  573SOL    HW2 1719   1.625   0.280   0.998
  574SOL     OW 1720   1.126   2.447   1.741
  574SOL    HW1 1721   1.212   2.412   1.705
  574SOL    HW2 1722   1.124   2.547   1.733
  575SOL     OW 1723   1.662   0.860   0.789
  575SOL    HW1 1724   1.601   0.802   0.843
  575SOL    HW2 1725   1.645   0.846   0.692
  576SOL     OW 1726   2.242   0.078   1.665
  576SOL    HW1 1727   2.243   0.123   1.754
  576SOL    HW2 1728   2.171   0.008   1.664
  577SOL     OW 1729   1.910   1.167   0.754
  577SOL    HW1 1730   1.810   1.168   0.755
  577SOL    HW2 1731   1.944   1.261   0.754
  578SOL     OW 1732   0.381   2.836   2.727
  578SOL    HW1 1733   0.338   2.751   2.754
  578SOL    HW2 1734   0.480   2.822   2.717
  579SOL     OW 1735   1.452   0.871   2.452
  579SOL    HW1 1736   1.494   0.780   2.449
  579SOL    HW2 1737   1.522   0.941   2.440
  580SOL     OW 1738   1.516   2.301   2.012
  580SOL    HW1 1739   1.601   2.350   1.997
  580SOL    HW2 1740   1.526   2.240   2.091
  581SOL     OW 1741   0.968   2.261   0.805
  581SOL    HW1 1742   1.046   2.278   0.745
  581SOL    HW2 1743   0.986   2.178   0.859
  582SOL     OW 1744   2.785   2.596   3.033
  582SOL    HW1 1745   2.703   2.654   3.033
  582SOL    HW2 1746   2.867   2.654   3.030
  583SOL     OW 1747   1.411   1.218   0.953
  583SOL    HW1 1748   1.356   1.293   0.989
  583SOL    HW2 1749   1.374   1.189   0.864
  584SOL     OW 1750   0.131   2.333   0.954
  584SOL    HW1 1751   0.187   2.266   1.002
  584SOL    HW2 1752   0.159   2.425   0.981
  585SOL     OW 1753   0.705   2.205   2.914
  585SOL    HW1 1754   0.804   2.195   2.920
  585SOL    HW2 1755   0.670   2.240   3.001
  586SOL     OW 1756   0.076   2.482   2.617
  586SOL    HW1 1757   0.096   2.385   2.629
  586SOL    HW2 1758   0.065   2.526   2.706
  587SOL     OW 1759   2.530   1.427   0.007
  587SOL    HW1 1760   2.614   1.372   0.004
  587SOL    HW2 1761   2.454   1.371   0.039
  588SOL     OW 1762   0.617   0.263   2.982
  588SOL    HW1 1763   0.704   0.311   2.993
  588SOL    HW2 1764   0.635   0.167   2.960
  589SOL     OW 1765   2.417   0.495   1.934
  589SOL    HW1 1766   2.399   0.398   1.923
  589SOL    HW2 1767   2.332   0.546   1.928
  590SOL     OW 1768   0.946   1.752   3.098
  590SOL    HW1 1769   0.941   1.850   3.119
  590SOL    HW2 1770   0.888   1.701   3.163
  591SOL     OW 1771   0.318   1.757   2.078
  591SOL    HW1 1772   0.332   1.815   1.998
  591SOL    HW2 1773   0.270   1.809   2.149
  592SOL     OW 1774   2.276   2.149   2.602
  592SOL    HW1 1775   2.341   2.107   2.665
  592SOL    HW2 1776   2.183   2.123   2.628
  593SOL     OW 1777   3.139   2.526   1.240
  593SOL    HW1 1778   3.089   2.453   1.287
  593SOL    HW2 1779   3.152   2.501   1.144
  594SOL     OW 1780   1.982   2.997   2.917
  594SOL    HW1 1781   1.998   3.094   2.937
  594SOL    HW2 1782   1.885   2.976   2.926
  595SOL     OW 1783   1.933   3.048   1.781
  595SOL    HW1 1784   1.860   3.083   1.724
  595SOL    HW2 1785   2.014   3.029   1.725
  596SOL     OW 1786   2.795   0.574   0.831
  596SOL    HW1 1787   2.719   0.518   0.798
  596SOL    HW2 1788   2.762   0.667   0.849
  597SOL     OW 1789   0.419   0.542   0.392
  597SOL    HW1 1790   0.477   0.582   0.321
  597SOL    HW2 1791   0.351   0.609   0.422
  598SOL     OW 1792   0.322   0.767   2.653
  598SOL    HW1 1793   0.315   0.823   2.571
  598SOL    HW2 1794   0.414   0.776   2.692
  599SOL     OW 1795   2.083   2.596   2.467
  599SOL    HW1 1796   2.061   2.499   2.455
  599SOL    HW2 1797   2.017   2.637   2.531
  600SOL     OW 1798   1.143   2.899   1.410
  600SOL    HW1 1799   1.242   2.888   1.415
  600SOL    HW2 1800   1.119   2.996   1.423
  601SOL     OW 1801   0.670   1.106   1.176
  601SOL    HW1 1802   0.607   1.030   1.162
  601SOL    HW2 1803   0.688   1.118   1.273
  602SOL     OW 1804   2.371   1.652   0.903
  602SOL    HW1 1805   2.369   1.566   0.854
  602SOL    HW2 1806   2.414   1.639   0.993
  603SOL     OW 1807   1.687   3.188   2.776
  603SOL    HW1 1808   1.770   3.153   2.820
  603SOL    HW2 1809   1.703   3.199   2.678
  604SOL     OW 1810   0.109   1.131   1.512
  604SOL    HW1 1811   0.145   1.224   1.503
  604SOL    HW2 1812   0.059   1.107   1.429
  605SOL     OW 1813   0.604   1.717   3.164
  605SOL    HW1 1814   0.573   1.650   3.097
  605SOL    HW2 1815   0.615   1.806   3.118
  606SOL     OW 1816   2.766   2.598   1.816
  606SOL    HW1 1817   2.789   2.612   1.913
  606SOL    HW2 1818   2.761   2.500   1.797
  607SOL     OW 1819   0.942   1.860   1.658
  607SOL    HW1 1820   0.954   1.870   1.560
  607SOL    HW2 1821   0.912   1.766   1.678
  608SOL     OW 1822   1.333   1.031   2.651
  608SOL    HW1 1823   1.429   1.057   2.646
  608SOL    HW2 1824   1.276   1.113   2.651
  609SOL     OW 1825   2.177   3.062   3.067
  609SOL    HW1 1826   2.216   3.136   3.011
  609SOL    HW2 1827   2.127   3.101   3.143
  610SOL     OW 1828   2.479   2.710   2.759
  610SOL    HW1 1829   2.537   2.751   2.829
  610SOL    HW2 1830   2.526   2.631   2.718
  611SOL     OW 1831   2.629   0.270   2.858
  611SOL    HW1 1832   2.583   0.190   2.896
  611SOL    HW2 1833   2.666   0.247   2.768
  612SOL     OW 1834   3.139   1.315   0.054
  612SOL    HW1 1835   3.215   1.289   0.115
  612SOL    HW2 1836   3.155   1.407   0.019
  613SOL     OW 1837   1.600   1.275   1.825
  613SOL    HW1 1838   1.532   1.256   1.896
  613SOL    HW2 1839   1.686   1.231   1.850
  614SOL     OW 1840   0.790   2.107   1.159
  614SOL    HW1 1841   0.709   2.084   1.105
  614SOL    HW2 1842   0.872   2.080   1.110
  615SOL     OW 1843   1.673   2.370   2.289
  615SOL    HW1 1844   1.772   2.375   2.272
  615SOL    HW2 1845   1.624   2.406   2.210
  616SOL     OW 1846   1.228   0.492   1.728
  616SOL    HW1 1847   1.165   0.415   1.722
  616SOL    HW2 1848   1.322   0.459   1.734
  617SOL     OW 1849   2.648   2.074   2.791
  617SOL    HW1 1850   2.590   2.153   2.815
  617SOL    HW2 1851   2.662   2.018   2.873
  618SOL     OW 1852   1.039   1.445   2.694
  618SOL    HW1 1853   1.045   1.470   2.597
  618SOL    HW2 1854   0.964   1.380   2.707
  619SOL     OW 1855   0.042   0.957   2.024
  619SOL    HW1 1856   0.141   0.967   2.035
  619SOL    HW2 1857   0.015   0.866   2.056
  620SOL     OW 1858   1.134   2.811   3.037
  620SOL    HW1 1859   1.098   2.775   2.951
  620SOL    HW2 1860   1.178   2.899   3.020
  621SOL     OW 1861   0.980   2.216   2.420
  621SOL    HW1 1862   1.051   2.146   2.423
  621SOL    HW2 1863   0.893   2.177   2.451
  622SOL     OW 1864   2.630   2.135   0.974
  622SOL    HW1 1865   2.564   2.170   1.041
  622SOL    HW2 1866   2.665   2.047   1.006
  623SOL     OW 1867   2.559   2.283   1.708
  623SOL    HW1 1868   2.491   2.330   1.764
  623SOL    HW2 1869   2.651   2.306   1.739
  624SOL     OW 1870   1.491   2.772   2.284
  624SOL    HW1 1871   1.529   2.687   2.319
  624SOL    HW2 1872   1.564   2.826   2.242
  625SOL     OW 1873   0.523   1.516   0.503
  625SOL    HW1 1874   0.465   1.436   0.516
  625SOL    HW2 1875   0.500   1.586   0.570
  626SOL     OW 1876   1.450   1.508   2.029
  626SOL    HW1 1877   1.415   1.601   2.029
  626SOL    HW2 1878   1.550   1.509   2.031
  627SOL     OW 1879   0.944   0.302   0.054
  627SOL    HW1 1880   1.001   0.383   0.061
  627SOL    HW2 1881   0.848   0.329   0.054
  628SOL     OW 1882   2.105   0.518   2.654
  628SOL    HW1 1883   2.149   0.434   2.686
  628SOL    HW2 1884   2.174   0.578   2.613
  629SOL     OW 1885   1.222   1.093   2.886
  629SOL    HW1 1886   1.136   1.041   2.878
  629SOL    HW2 1887   1.202   1.191   2.887
  630SOL     OW 1888   2.602   1.438   0.909
  630SOL    HW1 1889   2.669   1.370   0.939
  630SOL    HW2 1890   2.537   1.457   0.983
  631SOL     OW 1891   1.815   2.357   0.152
  631SOL    HW1 1892   1.787   2.261   0.158
  631SOL    HW2 1893   1.738   2.416   0.174
  632SOL     OW 1894   1.766   1.778   0.505
  632SOL    HW1 1895   1.682   1.801   0.555
  632SOL    HW2 1896   1.808   1.862   0.471
  633SOL     OW 1897   1.446   3.158   0.089
  633SOL    HW1 1898   1.358   3.175   0.134
  633SOL    HW2 1899   1.520   3.197   0.144
  634SOL     OW 1900   0.456   0.635   1.176
  634SOL    HW1 1901   0.488   0.711   1.119
  634SOL    HW2 1902   0.516   0.625   1.255
  635SOL     OW 1903   2.961   1.960   2.518
  635SOL    HW1 1904   2.904   1.961   2.436
  635SOL    HW2 1905   3.040   2.019   2.505
  636SOL     OW 1906   1.682   1.860   2.580
  636SOL    HW1 1907   1.720   1.897   2.495
  636SOL    HW2 1908   1.688   1.929   2.652
  637SOL     OW 1909   1.573   1.772   2.061
  637SOL    HW1 1910   1.610   1.863   2.072
  637SOL    HW2 1911   1.606   1.712   2.134
  638SOL     OW 1912   3.002   0.464   1.839
  638SOL    HW1 1913   3.099   0.439   1.838
  638SOL    HW2 1914   2.993   0.561   1.862
  639SOL     OW 1915   1.090   2.977   1.685
  639SOL    HW1 1916   1.101   2.937   1.776
  639SOL    HW2 1917   1.049   3.068   1.693
  640SOL     OW 1918   3.120   0.296   2.830
  640SOL    HW1 1919   3.037   0.324   2.781
  640SOL    HW2 1920   3.200   0.336   2.787
  641SOL     OW 1921   0.906   0.121   0.359
  641SOL    HW1 1922   0.973   0.142   0.430
  641SOL    HW2 1923   0.816   0.112   0.399
  642SOL     OW 1924   0.632   2.533   1.498
  642SOL    HW1 1925   0.726   2.519   1.528
  642SOL    HW2 1926   0.627   2.616   1.442
  643SOL     OW 1927   3.127   2.496   2.652
  643SOL    HW1 1928   3.214   2.515   2.607
  643SOL    HW2 1929   3.135   2.413   2.706
  644SOL     OW 1930   1.744   2.963   0.570
  644SOL    HW1 1931   1.648   2.981   0.550
  644SOL    HW2 1932   1.782   3.038   0.624
  645SOL     OW 1933   1.849   0.742   0.806
  645SOL    HW1 1934   1.944   0.774   0.819
  645SOL    HW2 1935   1.838   0.652   0.848
  646SOL     OW 1936   2.200   1.775   0.319
  646SOL    HW1 1937   2.136   1.746   0.248
  646SOL    HW2 1938   2.245   1.695   0.358
  647SOL     OW 1939   1.067   2.576   0.769
  647SOL    HW1 1940   1.165   2.595   0.766
  647SOL    HW2 1941   1.017   2.662   0.767
  648SOL     OW 1942   1.149   0.647   0.517
  648SOL    HW1 1943   1.060   0.681   0.546
  648SOL    HW2 1944   1.183   0.581   0.584
  649SOL     OW 1945   2.021   1.375   0.970
  649SOL    HW1 1946   1.924   1.351   0.966
  649SOL    HW2 1947   2.076   1.294   0.949
  650SOL     OW 1948   2.737   2.317   0.780
  650SOL    HW1 1949   2.807   2.274   0.837
  650SOL    HW2 1950   2.776   2.340   0.691
  651SOL     OW 1951   1.693   0.161   1.259
  651SOL    HW1 1952   1.703   0.131   1.354
  651SOL    HW2 1953   1.675   0.082   1.201
  652SOL     OW 1954   0.830   2.009   0.343
  652SOL    HW1 1955   0.752   1.947   0.337
  652SOL    HW2 1956   0.910   1.958   0.373
  653SOL     OW 1957   2.758   2.669   2.261
  653SOL    HW1 1958   2.782   2.719   2.344
  653SOL    HW2 1959   2.681   2.608   2.279
  654SOL     OW 1960   2.160   2.164   2.408
  654SOL    HW1 1961   2.211   2.078   2.404
  654SOL    HW2 1962   2.068   2.147   2.442
  655SOL     OW 1963   1.831   2.873   2.288
  655SOL    HW1 1964   1.789   2.964   2.286
  655SOL    HW2 1965   1.853   2.844   2.195
  656SOL     OW 1966   2.260   3.048   1.080
  656SOL    HW1 1967   2.319   3.125   1.057
  656SOL    HW2 1968   2.315   2.970   1.110
  657SOL     OW 1969   1.175   2.997   2.821
  657SOL    HW1 1970   1.135   3.088   2.818
  657SOL    HW2 1971   1.275   3.004   2.824
  658SOL     OW 1972   0.381   3.132   0.920
  658SOL    HW1 1973   0.322   3.057   0.949
  658SOL    HW2 1974   0.336   3.184   0.848
  659SOL     OW 1975   3.145   1.222   0.573
  659SOL    HW1 1976   3.048   1.212   0.594
  659SOL    HW2 1977   3.162   1.312   0.533
  660SOL     OW 1978   3.184   1.047   0.194
  660SOL    HW1 1979   3.215   0.982   0.263
  660SOL    HW2 1980   3.201   1.010   0.102
  661SOL     OW 1981   2.236   1.992   1.579
  661SOL    HW1 1982   2.154   1.982   1.523
  661SOL    HW2 1983   2.316   2.007   1.521
  662SOL     OW 1984   2.236   1.220   3.024
  662SOL    HW1 1985   2.323   1.242   3.067
  662SOL    HW2 1986   2.244   1.133   2.976
  663SOL     OW 1987   2.350   0.618   0.278
  663SOL    HW1 1988   2.404   0.691   0.319
  663SOL    HW2 1989   2.410   0.551   0.235
  664SOL     OW 1990   0.105   1.515   0.510
  664SOL    HW1 1991   0.015   1.480   0.533
  664SOL    HW2 1992   0.101   1.567   0.424
  665SOL     OW 1993   2.973   3.033   2.447
  665SOL    HW1 1994   2.958   2.941   2.483
  665SOL    HW2 1995   2.928   3.100   2.506
  666SOL     OW 1996   2.546   1.458   0.242
  666SOL    HW1 1997   2.448   1.480   0.242
  666SOL    HW2 1998   2.598   1.543   0.242
  667SOL     OW 1999   1.081   2.787   2.721
  667SOL    HW1 2000   1.055   2.691   2.710
  667SOL    HW2 2001   1.180   2.796   2.721
  668SOL     OW 2002   2.935   2.696   2.824
  668SOL    HW1 2003   2.939   2.756   2.744
  668SOL    HW2 2004   2.955   2.602   2.796
  669SOL     OW 2005   2.023   2.558   2.219
  669SOL    HW1 2006   1.945   2.509   2.179
  669SOL    HW2 2007   2.081   2.594   2.146
  670SOL     OW 2008   1.138   0.156   2.623
  670SOL    HW1 2009   1.084   0.168   2.707
  670SOL    HW2 2010   1.079   0.121   2.551
  671SOL     OW 2011   1.009   2.130   2.654
  671SOL    HW1 2012   1.025   2.040   2.614
  671SOL    HW2 2013   1.031   2.129   2.751
  672SOL     OW 2014   2.721   1.264   2.058
  672SOL    HW1 2015   2.650   1.196   2.070
  672SOL    HW2 2016   2.800   1.222   2.012
  673SOL     OW 2017   0.419   1.056   1.558
  673SOL    HW1 2018   0.329   1.099   1.550
  673SOL    HW2 2019   0.490   1.121   1.533
  674SOL     OW 2020   2.009   2.334   2.701
  674SOL    HW1 2021   2.058   2.376   2.777
  674SOL    HW2 2022   2.070   2.327   2.622
  675SOL     OW 2023   1.850   0.157   0.910
  675SOL    HW1 2024   1.831   0.255   0.918
  675SOL    HW2 2025   1.766   0.106   0.929
  676SOL     OW 2026   2.287   1.189   2.619
  676SOL    HW1 2027   2.198   1.235   2.617
  676SOL    HW2 2028   2.273   1.091   2.629
  677SOL     OW 2029   2.927   0.840   2.812
  677SOL    HW1 2030   2.901   0.915   2.750
  677SOL    HW2 2031   3.023   0.849   2.836
  678SOL     OW 2032   0.462   2.091   1.844
  678SOL    HW1 2033   0.376   2.040   1.839
  678SOL    HW2 2034   0.475   2.124   1.937
  679SOL     OW 2035   2.242   0.305   0.821
  679SOL    HW1 2036   2.293   0.243   0.761
  679SOL    HW2 2037   2.300   0.335   0.896
  680SOL     OW 2038   0.742   0.461   2.510
  680SOL    HW1 2039   0.701   0.436   2.422
  680SOL    HW2 2040   0.759   0.378   2.563
  681SOL     OW 2041   0.312   2.117   2.101
  681SOL    HW1 2042   0.251   2.063   2.043
  681SOL    HW2 2043   0.308   2.082   2.195
  682SOL     OW 2044   0.456   0.319   0.883
  682SOL    HW1 2045   0.357   0.334   0.885
  682SOL    HW2 2046   0.503   0.407   0.876
  683SOL     OW 2047   0.807   1.636   2.328
  683SOL    HW1 2048   0.770   1.576   2.399
  683SOL    HW2 2049   0.821   1.583   2.244
  684SOL     OW 2050   0.427   1.419   0.747
  684SOL    HW1 2051   0.523   1.448   0.747
  684SOL    HW2 2052   0.422   1.319   0.745
  685SOL     OW 2053   2.724   1.121   0.900
  685SOL    HW1 2054   2.681   1.093   0.986
  685SOL    HW2 2055   2.653   1.132   0.830
  686SOL     OW 2056   0.357   0.425   1.403
  686SOL    HW1 2057   0.274   0.428   1.460
  686SOL    HW2 2058   0.403   0.513   1.408
  687SOL     OW 2059   0.059   2.143   1.857
  687SOL    HW1 2060   0.031   2.048   1.850
  687SOL    HW2 2061   0.159   2.148   1.862
  688SOL     OW 2062   1.355   3.107   1.817
  688SOL    HW1 2063   1.379   3.012   1.796
  688SOL    HW2 2064   1.268   3.109   1.867
  689SOL     OW 2065   0.484   0.391   1.622
  689SOL    HW1 2066   0.583   0.377   1.618
  689SOL    HW2 2067   0.464   0.489   1.618
  690SOL     OW 2068   2.210   2.804   1.472
  690SOL    HW1 2069   2.184   2.806   1.569
  690SOL    HW2 2070   2.199   2.895   1.433
  691SOL     OW 2071   2.402   0.132   1.030
  691SOL    HW1 2072   2.401   0.228   1.060
  691SOL    HW2 2073   2.449   0.124   0.942
  692SOL     OW 2074   0.033   1.150   0.785
  692SOL    HW1 2075   0.127   1.122   0.802
  692SOL    HW2 2076   0.015   1.147   0.687
  693SOL     OW 2077   0.264   2.514   2.248
  693SOL    HW1 2078   0.314   2.528   2.162
  693SOL    HW2 2079   0.176   2.560   2.244
  694SOL     OW 2080   2.210   1.800   2.278
  694SOL    HW1 2081   2.121   1.756   2.291
  694SOL    HW2 2082   2.198   1.899   2.272
  695SOL     OW 2083   1.930   2.662   1.472
  695SOL    HW1 2084   1.866   2.585   1.478
  695SOL    HW2 2085   2.023   2.629   1.486
  696SOL     OW 2086   1.835   1.525   1.870
  696SOL    HW1 2087   1.740   1.509   1.899
  696SOL    HW2 2088   1.852   1.623   1.864
  697SOL     OW 2089   0.166   2.911   0.763
  697SOL    HW1 2090   0.068   2.928   0.764
  697SOL    HW2 2091   0.184   2.818   0.731
  698SOL     OW 2092   0.824   0.793   1.710
  698SOL    HW1 2093   0.891   0.865   1.695
  698SOL    HW2 2094   0.851   0.711   1.659
  699SOL     OW 2095   0.788   2.126   3.163
  699SOL    HW1 2096   0.840   2.207   3.136
  699SOL    HW2 2097   0.840   2.044   3.140
  700SOL     OW 2098   2.296   1.151   1.520
  700SOL    HW1 2099   2.291   1.054   1.495
  700SOL    HW2 2100   2.208   1.181   1.556
  701SOL     OW 2101   1.732   1.422   2.663
  701SOL    HW1 2102   1.655   1.484   2.673
  701SOL    HW2 2103   1.815   1.475   2.646
  702SOL     OW 2104   1.626   2.739   1.396
  702SOL    HW1 2105   1.586   2.813   1.341
  702SOL    HW2 2106   1.725   2.749   1.398
  703SOL     OW 2107   2.681   0.577   0.158
  703SOL    HW1 2108   2.621   0.536   0.089
  703SOL    HW2 2109   2.640   0.566   0.248
  704SOL     OW 2110   0.114   2.189   3.048
  704SOL    HW1 2111   0.025   2.235   3.060
  704SOL    HW2 2112   0.188   2.253   3.070
  705SOL     OW 2113   1.276   1.607   2.468
  705SOL    HW1 2114   1.324   1.608   2.556
  705SOL    HW2 2115   1.331   1.559   2.400
  706SOL     OW 2116   1.068   2.412   0.455
  706SOL    HW1 2117   1.065   2.420   0.355
  706SOL    HW2 2118   1.150   2.361   0.481
  707SOL     OW 2119   0.780   2.247   2.630
  707SOL    HW1 2120   0.858   2.305   2.656
  707SOL    HW2 2121   0.791   2.156   2.670
  708SOL     OW 2122   3.009   2.298   0.495
  708SOL    HW1 2123   3.077   2.343   0.437
  708SOL    HW2 2124   2.919   2.339   0.479
  709SOL     OW 2125   1.625   1.976   2.296
  709SOL    HW1 2126   1.535   1.964   2.253
  709SOL    HW2 2127   1.681   1.895   2.278
  710SOL     OW 2128   0.307   2.399   2.689
  710SOL    HW1 2129   0.394   2.350   2.677
  710SOL    HW2 2130   0.325   2.497   2.700
  711SOL     OW 2131   2.745   3.135   0.866
  711SOL    HW1 2132   2.665   3.130   0.806
  711SOL    HW2 2133   2.828   3.143   0.810
  712SOL     OW 2134   1.009  -0.003   2.056
  712SOL    HW1 2135   1.009   0.064   1.982
  712SOL    HW2 2136   1.095   0.003   2.107
  713SOL     OW 2137   2.022   2.466   0.057
  713SOL    HW1 2138   1.940   2.509   0.018
  713SOL    HW2 2139   2.099   2.530   0.051
  714SOL     OW 2140   2.875   3.077   3.163
  714SOL    HW1 2141   2.850   3.171   3.139
  714SOL    HW2 2142   2.811   3.014   3.118
  715SOL     OW 2143   1.941   0.443   0.313
  715SOL    HW1 2144   1.858   0.472   0.361
  715SOL    HW2 2145   1.946   0.343   0.313
  716SOL     OW 2146   0.613   2.185   2.369
  716SOL    HW1 2147   0.661   2.258   2.418
  716SOL    HW2 2148   0.548   2.225   2.304
  717SOL     OW 2149   2.196   2.829   3.116
  717SOL    HW1 2150   2.188   2.848   3.018
  717SOL    HW2 2151   2.289   2.847   3.146
  718SOL     OW 2152   3.007   1.089   0.036
  718SOL    HW1 2153   3.006   1.150   0.115
  718SOL    HW2 2154   3.062   1.130  -0.037
  719SOL     OW 2155   2.604   0.726   2.395
  719SOL    HW1 2156   2.650   0.637   2.393
  719SOL    HW2 2157   2.505   0.712   2.389
  720SOL     OW 2158   2.157   1.091   0.043
  720SOL    HW1 2159   2.057   1.093   0.042
  720SOL    HW2 2160   2.188   0.996   0.044
  721SOL     OW 2161   0.050   0.348   0.894
  721SOL    HW1 2162   0.015   0.433   0.854
  721SOL    HW2 2163   0.143   0.362   0.926
  722SOL     OW 2164   1.713   1.500   1.388
  722SOL    HW1 2165   1.655   1.581   1.389
  722SOL    HW2 2166   1.808   1.527   1.371
  723SOL     OW 2167   0.755   2.553   0.912
  723SOL    HW1 2168   0.812   2.471   0.911
  723SOL    HW2 2169   0.774   2.607   0.830
  724SOL     OW 2170   0.103   1.522   2.139
  724SOL    HW1 2171   0.015   1.569   2.131
  724SOL    HW2 2172   0.170   1.565   2.079
  725SOL     OW 2173   0.229   1.776   1.467
  725SOL    HW1 2174   0.137   1.760   1.433
  725SOL    HW2 2175   0.288   1.807   1.392
  726SOL     OW 2176   0.041   0.724   1.890
  726SOL    HW1 2177   0.015   0.630   1.913
  726SOL    HW2 2178   0.141   0.729   1.883
  727SOL     OW 2179   1.400   0.118   2.504
  727SOL    HW1 2180   1.466   0.043   2.500
  727SOL    HW2 2181   1.307   0.082   2.499
  728SOL     OW 2182   2.573   0.626   0.473
  728SOL    HW1 2183   2.666   0.588   0.476
  728SOL    HW2 2184   2.507   0.553   0.457
  729SOL     OW 2185   0.433   1.295   2.720
  729SOL    HW1 2186   0.467   1.261   2.808
  729SOL    HW2 2187   0.335   1.311   2.725
  730SOL     OW 2188   2.082   1.050   2.047
  730SOL    HW1 2189   2.049   1.138   2.080
  730SOL    HW2 2190   2.170   1.029   2.090
  731SOL     OW 2191   0.150   1.852   0.148
  731SOL    HW1 2192   0.245   1.875   0.168
  731SOL    HW2 2193   0.121   1.898   0.063
  732SOL     OW 2194   1.890   0.259   0.111
  732SOL    HW1 2195   1.966   0.312   0.075
  732SOL    HW2 2196   1.923   0.172   0.146
  733SOL     OW 2197   2.828   2.921   2.897
  733SOL    HW1 2198   2.758   2.882   2.838
  733SOL    HW2 2199   2.899   2.964   2.842
  734SOL     OW 2200   1.956   2.992   0.116
  734SOL    HW1 2201   2.030   2.926   0.109
  734SOL    HW2 2202   1.989   3.076   0.160
  735SOL     OW 2203   3.113   1.019   2.726
  735SOL    HW1 2204   3.047   1.094   2.720
  735SOL    HW2 2205   3.205   1.056   2.722
  736SOL     OW 2206   1.803   1.889   1.153
  736SOL    HW1 2207   1.764   1.969   1.108
  736SOL    HW2 2208   1.788   1.808   1.096
  737SOL     OW 2209   1.737   2.384   2.922
  737SOL    HW1 2210   1.677   2.393   2.843
  737SOL    HW2 2211   1.778   2.472   2.943
  738SOL     OW 2212   2.618   3.139   2.194
  738SOL    HW1 2213   2.692   3.197   2.158
  738SOL    HW2 2214   2.649   3.093   2.277
  739SOL     OW 2215   2.888   2.115   0.645
  739SOL    HW1 2216   2.794   2.121   0.679
  739SOL    HW2 2217   2.942   2.190   0.684
  740SOL     OW 2218   2.176   2.356   0.707
  740SOL    HW1 2219   2.211   2.397   0.791
  740SOL    HW2 2220   2.216   2.266   0.694
  741SOL     OW 2221   0.530   3.050   0.139
  741SOL    HW1 2222   0.586   2.967   0.143
  741SOL    HW2 2223   0.589   3.130   0.141
  742SOL     OW 2224   1.627   3.102   2.160
  742SOL    HW1 2225   1.687   3.041   2.107
  742SOL    HW2 2226   1.647   3.197   2.135
  743SOL     OW 2227   2.415   0.787   3.021
  743SOL    HW1 2228   2.488   0.809   3.085
  743SOL    HW2 2229   2.336   0.847   3.038
  744SOL     OW 2230   0.362   0.020   1.312
  744SOL    HW1 2231   0.295   0.056   1.377
  744SOL    HW2 2232   0.418   0.095   1.278
  745SOL     OW 2233   0.311   1.058   2.603
  745SOL    HW1 2234   0.288   1.012   2.689
  745SOL    HW2 2235   0.400   1.028   2.571
  746SOL     OW 2236   2.489   0.972   0.005
  746SOL    HW1 2237   2.542   0.900  -0.038
  746SOL    HW2 2238   2.395   0.969  -0.029
  747SOL     OW 2239   2.149   2.146   0.168
  747SOL    HW1 2240   2.111   2.239   0.165
  747SOL    HW2 2241   2.249   2.151   0.158
  748SOL     OW 2242   1.643   2.790   2.894
  748SOL    HW1 2243   1.576   2.720   2.868
  748SOL    HW2 2244   1.627   2.873   2.840
  749SOL     OW 2245   2.990   2.155   1.291
  749SOL    HW1 2246   2.897   2.189   1.287
  749SOL    HW2 2247   3.054   2.231   1.302
  750SOL     OW 2248   1.053   2.767   0.292
  750SOL    HW1 2249   1.104   2.681   0.285
  750SOL    HW2 2250   1.116   2.844   0.284
  751SOL     OW 2251   2.875   1.852   0.995
  751SOL    HW1 2252   2.872   1.952   1.000
  751SOL    HW2 2253   2.962   1.823   0.955
  752SOL     OW 2254   1.037   2.072   1.786
  752SOL    HW1 2255   1.124   2.056   1.738
  752SOL    HW2 2256   1.020   1.996   1.849
  753SOL     OW 2257   1.509   2.970  -0.007
  753SOL    HW1 2258   1.487   2.940   0.085
  753SOL    HW2 2259   1.601   3.010  -0.008
  754SOL     OW 2260   2.086   2.414   3.002
  754SOL    HW1 2261   1.990   2.435   3.023
  754SOL    HW2 2262   2.097   2.315   2.994
  755SOL     OW 2263   2.562   3.154   1.918
  755SOL    HW1 2264   2.556   3.054   1.925
  755SOL    HW2 2265   2.470   3.192   1.907
  756SOL     OW 2266   3.023   0.703   1.053
  756SOL    HW1 2267   3.066   0.793   1.045
  756SOL    HW2 2268   2.970   0.684   0.970
  757SOL     OW 2269   0.938   1.258   1.885
  757SOL    HW1 2270   1.018   1.210   1.920
  757SOL    HW2 2271   0.920   1.229   1.791
  758SOL     OW 2272   0.113   0.253   1.300
  758SOL    HW1 2273   0.030   0.241   1.354
  758SOL    HW2 2274   0.141   0.349   1.302
  759SOL     OW 2275   2.716   2.340   1.101
  759SOL    HW1 2276   2.770   2.355   1.184
  759SOL    HW2 2277   2.761   2.384   1.023
  760SOL     OW 2278   0.406   1.911   0.835
  760SOL    HW1 2279   0.452   1.917   0.923
  760SOL    HW2 2280   0.439   1.984   0.775
  761SOL     OW 2281   0.469   1.924   1.459
  761SOL    HW1 2282   0.546   1.987   1.471
  761SOL    HW2 2283   0.503   1.836   1.427
  762SOL     OW 2284   0.375   2.612   2.519
  762SOL    HW1 2285   0.466   2.652   2.533
  762SOL    HW2 2286   0.305   2.678   2.549
  763SOL     OW 2287   1.121   0.738   2.975
  763SOL    HW1 2288   1.086   0.650   3.007
  763SOL    HW2 2289   1.054   0.782   2.915
  764SOL     OW 2290   2.964   2.453   0.701
  764SOL    HW1 2291   2.979   2.415   0.792
  764SOL    HW2 2292   3.029   2.528   0.685
  765SOL     OW 2293   1.567   2.625   2.536
  765SOL    HW1 2294   1.592   2.619   2.633
  765SOL    HW2 2295   1.629   2.569   2.482
  766SOL     OW 2296   0.090   0.773   2.582
  766SOL    HW1 2297   0.015   0.753   2.644
  766SOL    HW2 2298   0.072   0.859   2.534
  767SOL     OW 2299   1.365   3.051   0.650
  767SOL    HW1 2300   1.335   3.129   0.594
  767SOL    HW2 2301   1.301   2.975   0.639
  768SOL     OW 2302   1.318   2.963   2.398
  768SOL    HW1 2303   1.401   2.965   2.342
  768SOL    HW2 2304   1.255   2.894   2.362
  769SOL     OW 2305   1.769  -0.000   0.553
  769SOL    HW1 2306   1.836  -0.003   0.479
  769SOL    HW2 2307   1.676  -0.003   0.515
  770SOL     OW 2308   1.641   2.632   1.033
  770SOL    HW1 2309   1.610   2.540   1.007
  770SOL    HW2 2310   1.647   2.637   1.133
  771SOL     OW 2311   1.653   1.147   2.275
  771SOL    HW1 2312   1.682   1.065   2.226
  771SOL    HW2 2313   1.713   1.224   2.252
  772SOL     OW 2314   1.330   0.570   0.072
  772SOL    HW1 2315   1.298   0.476   0.086
  772SOL    HW2 2316   1.253   0.628   0.048
  773SOL     OW 2317   0.014   0.776   1.325
  773SOL    HW1 2318   0.062   0.697   1.364
  773SOL    HW2 2319   0.078   0.854   1.320
  774SOL     OW 2320   1.470   0.518   2.166
  774SOL    HW1 2321   1.488   0.581   2.241
  774SOL    HW2 2322   1.375   0.488   2.168
  775SOL     OW 2323   0.330   0.094   0.330
  775SOL    HW1 2324   0.410   0.035   0.329
  775SOL    HW2 2325   0.247   0.039   0.332
  776SOL     OW 2326   0.579   1.214   0.925
  776SOL    HW1 2327   0.665   1.177   0.891
  776SOL    HW2 2328   0.578   1.313   0.912
  777SOL     OW 2329   1.849   1.435   2.191
  777SOL    HW1 2330   1.760   1.414   2.151
  777SOL    HW2 2331   1.895   1.351   2.218
  778SOL     OW 2332   0.777   2.860   2.673
  778SOL    HW1 2333   0.861   2.806   2.668
  778SOL    HW2 2334   0.699   2.800   2.684
  779SOL     OW 2335   2.325   1.069   0.910
  779SOL    HW1 2336   2.314   1.049   0.813
  779SOL    HW2 2337   2.414   1.037   0.941
  780SOL     OW 2338   1.674   1.928   3.079
  780SOL    HW1 2339   1.578   1.906   3.093
  780SOL    HW2 2340   1.727   1.844   3.070
  781SOL     OW 2341   0.964   1.311   3.149
  781SOL    HW1 2342   1.015   1.383   3.102
  781SOL    HW2 2343   0.870   1.341   3.163
  782SOL     OW 2344   1.931   1.322   0.414
  782SOL    HW1 2345   1.846   1.372   0.397
  782SOL    HW2 2346   1.999   1.383   0.455
  783SOL     OW 2347   1.431   1.757   2.679
  783SOL    HW1 2348   1.339   1.795   2.670
  783SOL    HW2 2349   1.497   1.830   2.696
  784SOL     OW 2350   3.062   1.329   0.818
  784SOL    HW1 2351   3.023   1.243   0.849
  784SOL    HW2 2352   3.004   1.369   0.747
  785SOL     OW 2353   1.915   0.166   2.338
  785SOL    HW1 2354   1.996   0.110   2.356
  785SOL    HW2 2355   1.944   0.257   2.307
  786SOL     OW 2356   0.692   2.994   1.293
  786SOL    HW1 2357   0.735   2.937   1.364
  786SOL    HW2 2358   0.642   2.936   1.229
  787SOL     OW 2359   0.628   3.064   2.812
  787SOL    HW1 2360   0.699   3.050   2.881
  787SOL    HW2 2361   0.542   3.024   2.844
  788SOL     OW 2362   2.481   1.185   2.880
  788SOL    HW1 2363   2.476   1.283   2.861
  788SOL    HW2 2364   2.411   1.137   2.828
  789SOL     OW 2365   1.949   2.604   0.381
  789SOL    HW1 2366   2.044   2.587   0.406
  789SOL    HW2 2367   1.897   2.518   0.385
  790SOL     OW 2368   1.154   0.248   0.910
  790SOL    HW1 2369   1.063   0.230   0.946
  790SOL    HW2 2370   1.183   0.340   0.937
  791SOL     OW 2371   1.621   0.546   2.477
  791SOL    HW1 2372   1.623   0.492   2.393
  791SOL    HW2 2373   1.707   0.535   2.527
  792SOL     OW 2374   1.730   1.728   2.817
  792SOL    HW1 2375   1.644   1.752   2.861
  792SOL    HW2 2376   1.712   1.690   2.726
  793SOL     OW 2377   3.158   0.525   1.545
  793SOL    HW1 2378   3.078   0.529   1.604
  793SOL    HW2 2379   3.192   0.432   1.541
  794SOL     OW 2380   2.071   0.242   1.098
  794SOL    HW1 2381   2.074   0.152   1.056
  794SOL    HW2 2382   1.987   0.289   1.070
  795SOL     OW 2383   1.191   0.336   1.962
  795SOL    HW1 2384   1.099   0.343   1.924
  795SOL    HW2 2385   1.234   0.426   1.963
  796SOL     OW 2386   3.115   1.080   2.239
  796SOL    HW1 2387   3.095   1.177   2.253
  796SOL    HW2 2388   3.214   1.066   2.237
  797SOL     OW 2389   2.013   0.011   2.827
  797SOL    HW1 2390   2.108  -0.003   2.853
  797SOL    HW2 2391   2.003  -0.003   2.728
  798SOL     OW 2392   0.572   3.104   3.070
  798SOL    HW1 2393   0.472   3.108   3.060
  798SOL    HW2 2394   0.608   3.197   3.073
  799SOL     OW 2395   0.964   2.965   2.919
  799SOL    HW1 2396   0.951   3.063   2.935
  799SOL    HW2 2397   0.924   2.941   2.830
  800SOL     OW 2398   2.382   2.716   1.792
  800SOL    HW1 2399   2.458   2.779   1.806
  800SOL    HW2 2400   2.305   2.745   1.849
  801SOL     OW 2401   1.592   1.670   3.106
  801SOL    HW1 2402   1.558   1.627   3.023
  801SOL    HW2 2403   1.516   1.700   3.163
  802SOL     OW 2404   2.003   1.721   0.626
  802SOL    HW1 2405   1.914   1.744   0.665
  802SOL    HW2 2406   2.004   1.746   0.529
  803SOL     OW 2407   3.105   2.946   0.823
  803SOL    HW1 2408   3.172   3.011   0.860
  803SOL    HW2 2409   3.032   2.997   0.777
  804SOL     OW 2410   1.913   0.917   0.397
  804SOL    HW1 2411   1.841   0.858   0.434
  804SOL    HW2 2412   1.964   0.959   0.472
  805SOL     OW 2413   2.253   0.653   1.434
  805SOL    HW1 2414   2.213   0.744   1.449
  805SOL    HW2 2415   2.185   0.583   1.450
  806SOL     OW 2416   0.337   3.090   1.694
  806SOL    HW1 2417   0.273   3.014   1.682
  806SOL    HW2 2418   0.286   3.176   1.694
  807SOL     OW 2419   1.745   1.445   0.671
  807SOL    HW1 2420   1.831   1.422   0.626
  807SOL    HW2 2421   1.683   1.367   0.668
  808SOL     OW 2422   0.750   1.810   2.049
  808SOL    HW1 2423   0.682   1.737   2.057
  808SOL    HW2 2424   0.705   1.898   2.055
  809SOL     OW 2425   2.758   2.940   2.054
  809SOL    HW1 2426   2.799   2.855   2.089
  809SOL    HW2 2427   2.666   2.950   2.093
  810SOL     OW 2428   0.619   2.889   3.055
  810SOL    HW1 2429   0.715   2.885   3.026
  810SOL    HW2 2430   0.602   2.823   3.128
  811SOL     OW 2431   2.576   2.293   1.347
  811SOL    HW1 2432   2.573   2.232   1.427
  811SOL    HW2 2433   2.503   2.360   1.353
  812SOL     OW 2434   0.967   0.891  -0.026
  812SOL    HW1 2435   0.896   0.961  -0.037
  812SOL    HW2 2436   0.924   0.801  -0.020
  813SOL     OW 2437   1.958   0.857   1.837
  813SOL    HW1 2438   1.981   0.931   1.773
  813SOL    HW2 2439   2.042   0.823   1.880
  814SOL     OW 2440   2.421   0.756   1.335
  814SOL    HW1 2441   2.422   0.757   1.235
  814SOL    HW2 2442   2.472   0.677   1.368
  815SOL     OW 2443   1.516   0.754   3.123
  815SOL    HW1 2444   1.504   0.655   3.132
  815SOL    HW2 2445   1.427   0.798   3.113
  816SOL     OW 2446   2.513   0.555   1.188
  816SOL    HW1 2447   2.537   0.492   1.261
  816SOL    HW2 2448   2.586   0.623   1.176
  817SOL     OW 2449   2.091   1.612   1.631
  817SOL    HW1 2450   1.995   1.584   1.625
  817SOL    HW2 2451   2.096   1.711   1.634
  818SOL     OW 2452   2.449   1.839   0.740
  818SOL    HW1 2453   2.440   1.938   0.726
  818SOL    HW2 2454   2.495   1.822   0.827
  819SOL     OW 2455   0.374   1.220   1.743
  819SOL    HW1 2456   0.334   1.236   1.832
  819SOL    HW2 2457   0.334   1.282   1.676
  820SOL     OW 2458   0.459   0.122   2.262
  820SOL    HW1 2459   0.405   0.049   2.221
  820SOL    HW2 2460   0.474   0.103   2.359
  821SOL     OW 2461   0.773   1.722   2.966
  821SOL    HW1 2462   0.695   1.683   2.916
  821SOL    HW2 2463   0.822   1.785   2.906
  822SOL     OW 2464   2.935   1.936   2.980
  822SOL    HW1 2465   2.847   1.983   2.989
  822SOL    HW2 2466   2.941   1.895   2.890
  823SOL     OW 2467   0.741   0.113   1.172
  823SOL    HW1 2468   0.649   0.104   1.133
  823SOL    HW2 2469   0.741   0.185   1.241
  824SOL     OW 2470   0.167   2.511   2.957
  824SOL    HW1 2471   0.127   2.427   2.921
  824SOL    HW2 2472   0.224   2.553   2.887
  825SOL     OW 2473   2.800   0.075   2.871
  825SOL    HW1 2474   2.792   0.027   2.784
  825SOL    HW2 2475   2.894   0.107   2.883
  826SOL     OW 2476   0.220   2.812   1.771
  826SOL    HW1 2477   0.127   2.849   1.773
  826SOL    HW2 2478   0.216   2.712   1.774
  827SOL     OW 2479   0.397   2.789   1.409
  827SOL    HW1 2480   0.415   2.690   1.406
  827SOL    HW2 2481   0.484   2.838   1.416
  828SOL     OW 2482   2.626   0.871   0.789
  828SOL    HW1 2483   2.531   0.881   0.818
  828SOL    HW2 2484   2.687   0.908   0.859
  829SOL     OW 2485   3.116   2.539   1.707
  829SOL    HW1 2486   3.193   2.478   1.727
  829SOL    HW2 2487   3.032   2.485   1.699
  830SOL     OW 2488   0.461   3.044   1.508
  830SOL    HW1 2489   0.471   3.144   1.516
  830SOL    HW2 2490   0.514   3.000   1.581
  831SOL     OW 2491   2.580   1.027   0.296
  831SOL    HW1 2492   2.519   0.994   0.224
  831SOL    HW2 2493   2.659   1.072   0.254
  832SOL     OW 2494   2.425   0.223   1.447
  832SOL    HW1 2495   2.423   0.322   1.430
  832SOL    HW2 2496   2.504   0.201   1.503
  833SOL     OW 2497   0.928   2.221   1.373
  833SOL    HW1 2498   1.023   2.203   1.346
  833SOL    HW2 2499   0.923   2.309   1.420
  834SOL     OW 2500   2.217   0.305   2.170
  834SOL    HW1 2501   2.205   0.224   2.227
  834SOL    HW2 2502   2.131   0.356   2.165
  835SOL     OW 2503   1.964   0.921   0.144
  835SOL    HW1 2504   1.876   0.894   0.106
  835SOL    HW2 2505   2.020   0.840   0.162
  836SOL     OW 2506   0.594   3.096   0.766
  836SOL    HW1 2507   0.584   3.193   0.741
  836SOL    HW2 2508   0.666   3.086   0.834
  837SOL     OW 2509   1.337   0.475   2.571
  837SOL    HW1 2510   1.288   0.389   2.557
  837SOL    HW2 2511   1.435   0.457   2.578
  838SOL     OW 2512   0.244   0.787   1.447
  838SOL    HW1 2513   0.283   0.872   1.409
  838SOL    HW2 2514   0.314   0.716   1.447
  839SOL     OW 2515   2.104   2.972   1.937
  839SOL    HW1 2516   2.161   3.038   1.888
  839SOL    HW2 2517   2.139   2.880   1.921
  840SOL     OW 2518   0.552   0.487   2.111
  840SOL    HW1 2519   0.499   0.564   2.074
  840SOL    HW2 2520   0.515   0.401   2.075
  841SOL     OW 2521   1.147   1.808   1.804
  841SOL    HW1 2522   1.197   1.734   1.849
  841SOL    HW2 2523   1.205   1.851   1.735
  842SOL     OW 2524   0.194   3.073   0.396
  842SOL    HW1 2525   0.219   2.977   0.400
  842SOL    HW2 2526   0.276   3.130   0.396
  843SOL     OW 2527   2.554   1.559   1.241
  843SOL    HW1 2528   2.588   1.476   1.196
  843SOL    HW2 2529   2.553   1.635   1.175
  844SOL     OW 2530   2.453   1.217   1.304
  844SOL    HW1 2531   2.385   1.269   1.357
  844SOL    HW2 2532   2.496   1.277   1.237
  845SOL     OW 2533   1.431   0.666   1.225
  845SOL    HW1 2534   1.345   0.659   1.173
  845SOL    HW2 2535   1.490   0.734   1.182
  846SOL     OW 2536   1.205   1.874   1.507
  846SOL    HW1 2537   1.201   1.774   1.501
  846SOL    HW2 2538   1.300   1.902   1.520
  847SOL     OW 2539   1.677   0.098   0.727
  847SOL    HW1 2540   1.584   0.134   0.735
  847SOL    HW2 2541   1.678   0.002   0.754
  848SOL     OW 2542   0.237   3.098   2.423
  848SOL    HW1 2543   0.264   3.189   2.455
  848SOL    HW2 2544   0.158   3.066   2.476
  849SOL     OW 2545   2.545   2.460   1.578
  849SOL    HW1 2546   2.457   2.415   1.563
  849SOL    HW2 2547   2.554   2.538   1.516
  850SOL     OW 2548   0.341   1.577   1.868
  850SOL    HW1 2549   0.323   1.638   1.791
  850SOL    HW2 2550   0.409   1.618   1.928
  851SOL     OW 2551   1.431   1.155   3.112
  851SOL    HW1 2552   1.439   1.254   3.100
  851SOL    HW2 2553   1.347   1.134   3.163
  852SOL     OW 2554   0.818   2.234   1.866
  852SOL    HW1 2555   0.748   2.301   1.840
  852SOL    HW2 2556   0.909   2.273   1.854
  853SOL     OW 2557   3.046   2.241   1.523
  853SOL    HW1 2558   3.089   2.153   1.507
  853SOL    HW2 2559   2.974   2.232   1.592
  854SOL     OW 2560   0.513   1.689   0.907
  854SOL    HW1 2561   0.584   1.625   0.878
  854SOL    HW2 2562   0.522   1.707   1.005
  855SOL     OW 2563   2.768   0.752   1.769
  855SOL    HW1 2564   2.853   0.802   1.758
  855SOL    HW2 2565   2.696   0.813   1.802
  856SOL     OW 2566   1.432   0.958   0.132
  856SOL    HW1 2567   1.371   0.951   0.053
  856SOL    HW2 2568   1.421   0.877   0.190
  857SOL     OW 2569   1.459   2.513   2.956
  857SOL    HW1 2570   1.480   2.491   2.860
  857SOL    HW2 2571   1.544   2.517   3.008
  858SOL     OW 2572   1.945   2.629   1.974
  858SOL    HW1 2573   1.955   2.728   1.979
  858SOL    HW2 2574   1.850   2.604   1.993
  859SOL     OW 2575   1.875   0.056   1.114
  859SOL    HW1 2576   1.918   0.038   1.203
  859SOL    HW2 2577   1.918  -0.003   1.045
  860SOL     OW 2578   2.801   0.714   2.252
  860SOL    HW1 2579   2.834   0.799   2.292
  860SOL    HW2 2580   2.876   0.647   2.249
  861SOL     OW 2581   0.249   1.872   1.026
  861SOL    HW1 2582   0.220   1.824   0.943
  861SOL    HW2 2583   0.224   1.969   1.019
  862SOL     OW 2584   2.606   0.306   0.238
  862SOL    HW1 2585   2.529   0.367   0.256
  862SOL    HW2 2586   2.579   0.236   0.172
  863SOL     OW 2587   0.080   0.303   0.669
  863SOL    HW1 2588   0.015   0.228   0.681
  863SOL    HW2 2589   0.031   0.386   0.640
  864SOL     OW 2590   0.130   1.454   0.775
  864SOL    HW1 2591   0.211   1.396   0.786
  864SOL    HW2 2592   0.048   1.398   0.769
  865SOL     OW 2593   0.879   0.628   2.467
  865SOL    HW1 2594   0.874   0.692   2.391
  865SOL    HW2 2595   0.906   0.677   2.550
  866SOL     OW 2596   1.325   2.560   0.923
  866SOL    HW1 2597   1.321   2.477   0.868
  866SOL    HW2 2598   1.389   2.546   0.999
  867SOL     OW 2599   0.144   2.776   0.476
  867SOL    HW1 2600   0.072   2.831   0.518
  867SOL    HW2 2601   0.173   2.705   0.541
  868SOL     OW 2602   2.486   1.244   0.917
  868SOL    HW1 2603   2.439   1.247   1.005
  868SOL    HW2 2604   2.420   1.255   0.843
  869SOL     OW 2605   0.875   3.116   0.077
  869SOL    HW1 2606   0.815   3.131  -0.001
  869SOL    HW2 2607   0.822   3.077   0.153
  870SOL     OW 2608   1.888   0.741   1.438
  870SOL    HW1 2609   1.955   0.667   1.442
  870SOL    HW2 2610   1.796   0.702   1.435
  871SOL     OW 2611   0.454   1.544   1.447
  871SOL    HW1 2612   0.371   1.519   1.495
  871SOL    HW2 2613   0.430   1.592   1.362
  872SOL     OW 2614   1.675   0.047   2.765
  872SOL    HW1 2615   1.589  -0.003   2.750
  872SOL    HW2 2616   1.730  -0.003   2.832
  873SOL     OW 2617   1.252   1.890   0.653
  873SOL    HW1 2618   1.306   1.909   0.735
  873SOL    HW2 2619   1.228   1.792   0.651
  874SOL     OW 2620   3.042   3.043   1.684
  874SOL    HW1 2621   3.133   3.037   1.725
  874SOL    HW2 2622   3.049   3.081   1.592
  875SOL     OW 2623   0.263   2.476   1.590
  875SOL    HW1 2624   0.283   2.378   1.584
  875SOL    HW2 2625   0.245   2.501   1.685
  876SOL     OW 2626   1.815   2.731   0.524
  876SOL    HW1 2627   1.827   2.761   0.619
  876SOL    HW2 2628   1.724   2.691   0.512
  877SOL     OW 2629   1.747   0.766   1.012
  877SOL    HW1 2630   1.750   0.861   1.044
  877SOL    HW2 2631   1.717   0.707   1.087
  878SOL     OW 2632   1.065   0.814   0.749
  878SOL    HW1 2633   0.993   0.744   0.756
  878SOL    HW2 2634   1.152   0.770   0.726
  879SOL     OW 2635   2.377   2.553   0.682
  879SOL    HW1 2636   2.279   2.570   0.670
  879SOL    HW2 2637   2.396   2.456   0.668
  880SOL     OW 2638   1.393   2.403   2.405
  880SOL    HW1 2639   1.422   2.313   2.372
  880SOL    HW2 2640   1.460   2.471   2.377
  881SOL     OW 2641   1.093   0.642   1.337
  881SOL    HW1 2642   1.185   0.605   1.322
  881SOL    HW2 2643   1.069   0.702   1.261
  882SOL     OW 2644   0.738   0.654   2.803
  882SOL    HW1 2645   0.652   0.669   2.851
  882SOL    HW2 2646   0.810   0.708   2.846
  883SOL     OW 2647   3.076   3.002   1.209
  883SOL    HW1 2648   3.046   2.907   1.206
  883SOL    HW2 2649   2.997   3.063   1.206
  884SOL     OW 2650   1.781   0.638   0.217
  884SOL    HW1 2651   1.824   0.705   0.277
  884SOL    HW2 2652   1.782   0.672   0.123
  885SOL     OW 2653   1.551   1.606   2.424
  885SOL    HW1 2654   1.527   1.631   2.330
  885SOL    HW2 2655   1.603   1.521   2.423
  886SOL     OW 2656   0.255   2.892   3.141
  886SOL    HW1 2657   0.200   2.812   3.163
  886SOL    HW2 2658   0.202   2.975   3.155
  887SOL     OW 2659   0.983   0.221   2.237
  887SOL    HW1 2660   1.029   0.138   2.267
  887SOL    HW2 2661   1.016   0.299   2.291
  888SOL     OW 2662   2.768   1.881   1.511
  888SOL    HW1 2663   2.745   1.977   1.524
  888SOL    HW2 2664   2.693   1.834   1.464
  889SOL     OW 2665   2.073   0.129   3.107
  889SOL    HW1 2666   2.014   0.187   3.163
  889SOL    HW2 2667   2.020   0.090   3.032
  890SOL     OW 2668   1.487   1.289   2.808
  890SOL    HW1 2669   1.425   1.239   2.868
  890SOL    HW2 2670   1.546   1.223   2.760
  891SOL     OW 2671   1.424   1.413   1.786
  891SOL    HW1 2672   1.495   1.482   1.803
  891SOL    HW2 2673   1.369   1.442   1.707
  892SOL     OW 2674   3.082   0.821   0.192
  892SOL    HW1 2675   3.143   0.763   0.139
  892SOL    HW2 2676   3.077   0.787   0.286
  893SOL     OW 2677   0.956   0.252   3.036
  893SOL    HW1 2678   0.928   0.347   3.026
  893SOL    HW2 2679   0.904   0.194   2.972
  894SOL     OW 2680   0.837   2.052   0.582
  894SOL    HW1 2681   0.792   2.101   0.657
  894SOL    HW2 2682   0.914   2.107   0.548
  895SOL     OW 2683   1.723  -0.002   2.242
  895SOL    HW1 2684   1.778   0.052   2.179
  895SOL    HW2 2685   1.705   0.050   2.325
  896SOL     OW 2686   1.513   2.875   2.607
  896SOL    HW1 2687   1.453   2.827   2.542
  896SOL    HW2 2688   1.508   2.974   2.590
  897SOL     OW 2689   2.323   0.723   1.638
  897SOL    HW1 2690   2.405   0.722   1.581
  897SOL    HW2 2691   2.294   0.817   1.654
  898SOL     OW 2692   3.083   3.049   2.225
  898SOL    HW1 2693   3.109   2.952   2.224
  898SOL    HW2 2694   3.166   3.105   2.222
  899SOL     OW 2695   2.748   1.228   1.350
  899SOL    HW1 2696   2.660   1.195   1.385
  899SOL    HW2 2697   2.787   1.293   1.415
  900SOL     OW 2698   2.358   3.197   1.361
  900SOL    HW1 2699   2.320   3.133   1.427
  900SOL    HW2 2700   2.458   3.197   1.368
  901SOL     OW 2701   1.730   2.892   1.194
  901SOL    HW1 2702   1.665   2.969   1.194
  901SOL    HW2 2703   1.795   2.905   1.120
  902SOL     OW 2704   1.111   1.010   1.538
  902SOL    HW1 2705   1.081   1.000   1.633
  902SOL    HW2 2706   1.150   0.924   1.506
  903SOL     OW 2707   2.829   1.609   2.496
  903SOL    HW1 2708   2.867   1.697   2.466
  903SOL    HW2 2709   2.898   1.559   2.548
  904SOL     OW 2710   1.598   0.759   0.253
  904SOL    HW1 2711   1.557   0.695   0.187
  904SOL    HW2 2712   1.596   0.718   0.344
  905SOL     OW 2713   2.931   1.290   3.031
  905SOL    HW1 2714   2.968   1.301   3.123
  905SOL    HW2 2715   2.960   1.367   2.974
  906SOL     OW 2716   2.561   1.406   1.403
  906SOL    HW1 2717   2.640   1.466   1.420
  906SOL    HW2 2718   2.489   1.427   1.468
  907SOL     OW 2719   0.748   0.438   1.275
  907SOL    HW1 2720   0.715   0.531   1.261
  907SOL    HW2 2721   0.843   0.441   1.309
  908SOL     OW 2722   3.215   0.240   2.559
  908SOL    HW1 2723   3.194   0.178   2.635
  908SOL    HW2 2724   3.174   0.205   2.475
  909SOL     OW 2725   1.582   0.815   2.808
  909SOL    HW1 2726   1.523   0.763   2.868
  909SOL    HW2 2727   1.528   0.879   2.754
  910SOL     OW 2728   3.026   1.422   1.118
  910SOL    HW1 2729   3.087   1.375   1.181
  910SOL    HW2 2730   3.057   1.409   1.024
  911SOL     OW 2731   2.406   0.373   0.004
  911SOL    HW1 2732   2.506   0.368   0.007
  911SOL    HW2 2733   2.377   0.469   0.009
  912SOL     OW 2734   0.960   1.597   0.081
  912SOL    HW1 2735   0.866   1.605   0.049
  912SOL    HW2 2736   0.969   1.516   0.140
  913SOL     OW 2737   1.341   2.626   1.432
  913SOL    HW1 2738   1.414   2.694   1.440
  913SOL    HW2 2739   1.253   2.671   1.448
  914SOL     OW 2740   1.440   0.162   1.576
  914SOL    HW1 2741   1.454   0.197   1.668
  914SOL    HW2 2742   1.422   0.064   1.580
  915SOL     OW 2743   0.879   1.030   1.975
  915SOL    HW1 2744   0.907   1.024   1.879
  915SOL    HW2 2745   0.960   1.031   2.034
  916SOL     OW 2746   2.153   0.883   2.556
  916SOL    HW1 2747   2.141   0.888   2.457
  916SOL    HW2 2748   2.192   0.795   2.581
  917SOL     OW 2749   1.298   2.111   0.821
  917SOL    HW1 2750   1.309   2.166   0.904
  917SOL    HW2 2751   1.214   2.138   0.774
  918SOL     OW 2752   0.414   1.317   1.362
  918SOL    HW1 2753   0.340   1.273   1.413
  918SOL    HW2 2754   0.492   1.255   1.356
  919SOL     OW 2755   0.552   2.676   1.149
  919SOL    HW1 2756   0.509   2.740   1.213
  919SOL    HW2 2757   0.623   2.723   1.097
  920SOL     OW 2758   1.181   0.628   0.933
  920SOL    HW1 2759   1.246   0.559   0.902
  920SOL    HW2 2760   1.224   0.718   0.931
  921SOL     OW 2761   0.886   2.465   3.162
  921SOL    HW1 2762   0.912   2.411   3.082
  921SOL    HW2 2763   0.804   2.519   3.141
  922SOL     OW 2764   2.038   1.113   1.290
  922SOL    HW1 2765   1.997   1.123   1.381
  922SOL    HW2 2766   2.118   1.054   1.296
  923SOL     OW 2767   2.240   1.429   1.404
  923SOL    HW1 2768   2.191   1.419   1.318
  923SOL    HW2 2769   2.222   1.520   1.443
  924SOL     OW 2770   1.826   0.503   2.017
  924SOL    HW1 2771   1.726   0.491   2.011
  924SOL    HW2 2772   1.870   0.414   2.011
  925SOL     OW 2773   2.798   1.541   1.607
  925SOL    HW1 2774   2.703   1.572   1.617
  925SOL    HW2 2775   2.799   1.442   1.592
  926SOL     OW 2776   1.547   1.056   0.709
  926SOL    HW1 2777   1.458   1.014   0.728
  926SOL    HW2 2778   1.533   1.147   0.670
  927SOL     OW 2779   2.859   0.765   1.996
  927SOL    HW1 2780   2.830   0.670   1.986
  927SOL    HW2 2781   2.779   0.824   2.006
  928SOL     OW 2782   0.072   0.626   2.382
  928SOL    HW1 2783   0.015   0.708   2.383
  928SOL    HW2 2784   0.014   0.545   2.389
  929SOL     OW 2785   0.817   2.848   0.512
  929SOL    HW1 2786   0.887   2.919   0.508
  929SOL    HW2 2787   0.818   2.794   0.427
  930SOL     OW 2788   2.877   2.806   1.854
  930SOL    HW1 2789   2.927   2.883   1.893
  930SOL    HW2 2790   2.780   2.829   1.845
  931SOL     OW 2791   0.588   1.848   2.489
  931SOL    HW1 2792   0.688   1.852   2.486
  931SOL    HW2 2793   0.551   1.941   2.491
  932SOL     OW 2794   2.956   2.209   2.684
  932SOL    HW1 2795   2.991   2.223   2.591
  932SOL    HW2 2796   2.967   2.113   2.710
  933SOL     OW 2797   2.060   2.286   2.189
  933SOL    HW1 2798   2.092   2.341   2.266
  933SOL    HW2 2799   1.967   2.255   2.208
  934SOL     OW 2800   0.108   0.434   1.710
  934SOL    HW1 2801   0.015   0.398   1.706
  934SOL    HW2 2802   0.106   0.531   1.732
  935SOL     OW 2803   0.954   1.010   0.863
  935SOL    HW1 2804   0.942   1.097   0.911
  935SOL    HW2 2805   1.021   0.955   0.912
  936SOL     OW 2806   2.423   1.839  -0.036
  936SOL    HW1 2807   2.519   1.812  -0.037
  936SOL    HW2 2808   2.415   1.938  -0.034
  937SOL     OW 2809   0.700   2.302   2.100
  937SOL    HW1 2810   0.602   2.283   2.099
  937SOL    HW2 2811   0.715   2.400   2.111
  938SOL     OW 2812   0.925   1.204   2.960
  938SOL    HW1 2813   0.968   1.121   2.995
  938SOL    HW2 2814   0.826   1.191   2.957
  939SOL     OW 2815   0.872   3.139   2.745
  939SOL    HW1 2816   0.790   3.197   2.745
  939SOL    HW2 2817   0.953   3.196   2.744
  940SOL     OW 2818   0.858   2.829   1.004
  940SOL    HW1 2819   0.814   2.806   0.918
  940SOL    HW2 2820   0.793   2.874   1.064
  941SOL     OW 2821   2.086   0.978   1.525
  941SOL    HW1 2822   2.049   0.892   1.490
  941SOL    HW2 2823   2.015   1.025   1.578
  942SOL     OW 2824   1.684   2.393   1.154
  942SOL    HW1 2825   1.597   2.346   1.163
  942SOL    HW2 2826   1.737   2.354   1.079
  943SOL     OW 2827   2.627   0.307   1.987
  943SOL    HW1 2828   2.644   0.316   1.888
  943SOL    HW2 2829   2.705   0.261   2.030
  944SOL     OW 2830   3.063   0.058   1.040
  944SOL    HW1 2831   2.983  -0.003   1.039
  944SOL    HW2 2832   3.146   0.004   1.030
  945SOL     OW 2833   1.748   2.130   2.924
  945SOL    HW1 2834   1.650   2.121   2.910
  945SOL    HW2 2835   1.791   2.163   2.840
  946SOL     OW 2836   2.747   2.130   2.154
  946SOL    HW1 2837   2.736   2.083   2.066
  946SOL    HW2 2838   2.814   2.204   2.143
  947SOL     OW 2839   2.985   2.394   1.043
  947SOL    HW1 2840   2.992   2.338   1.126
  947SOL    HW2 2841   2.951   2.485   1.067
  948SOL     OW 2842   1.037   1.476   1.749
  948SOL    HW1 2843   1.127   1.512   1.727
  948SOL    HW2 2844   0.973   1.552   1.763
  949SOL     OW 2845   2.552   2.037   1.701
  949SOL    HW1 2846   2.633   2.031   1.759
  949SOL    HW2 2847   2.575   2.083   1.616
  950SOL     OW 2848   0.815   0.525   1.770
  950SOL    HW1 2849   0.781   0.439   1.809
  950SOL    HW2 2850   0.908   0.511   1.735
  951SOL     OW 2851   3.214   1.338   2.033
  951SOL    HW1 2852   3.144   1.400   2.069
  951SOL    HW2 2853   3.204   1.248   2.075
  952SOL     OW 2854   0.141   2.217   1.400
  952SOL    HW1 2855   0.042   2.230   1.399
  952SOL    HW2 2856   0.186   2.306   1.400
  953SOL     OW 2857   0.693   2.494   0.453
  953SOL    HW1 2858   0.600   2.458   0.454
  953SOL    HW2 2859   0.758   2.418   0.456
  954SOL     OW 2860   1.072   1.484   0.395
  954SOL    HW1 2861   0.997   1.433   0.354
  954SOL    HW2 2862   1.037   1.543   0.468
  955SOL     OW 2863   0.271   2.167   0.133
  955SOL    HW1 2864   0.185   2.217   0.131
  955SOL    HW2 2865   0.287   2.126   0.043
  956SOL     OW 2866   0.764   2.261   0.104
  956SOL    HW1 2867   0.715   2.270   0.017
  956SOL    HW2 2868   0.779   2.352   0.143
  957SOL     OW 2869   0.419   2.362   3.161
  957SOL    HW1 2870   0.358   2.414   3.101
  957SOL    HW2 2871   0.512   2.398   3.154
  958SOL     OW 2872   1.943   2.028   2.237
  958SOL    HW1 2873   1.969   1.932   2.224
  958SOL    HW2 2874   1.844   2.036   2.233
  959SOL     OW 2875   1.827   0.056   2.531
  959SOL    HW1 2876   1.749  -0.006   2.533
  959SOL    HW2 2877   1.912   0.004   2.529
  960SOL     OW 2878   2.970   1.313   1.542
  960SOL    HW1 2879   3.040   1.381   1.566
  960SOL    HW2 2880   2.959   1.248   1.617
  961SOL     OW 2881   2.778   1.783   3.080
  961SOL    HW1 2882   2.861   1.779   3.135
  961SOL    HW2 2883   2.706   1.730   3.125
  962SOL     OW 2884   1.477   2.806   1.961
  962SOL    HW1 2885   1.396   2.815   1.904
  962SOL    HW2 2886   1.544   2.875   1.935
  963SOL     OW 2887   1.832   3.198   1.960
  963SOL    HW1 2888   1.778   3.122   1.924
  963SOL    HW2 2889   1.928   3.171   1.963
  964SOL     OW 2890   1.709   0.142   0.054
  964SOL    HW1 2891   1.658   0.062   0.088
  964SOL    HW2 2892   1.666   0.175  -0.030
  965SOL     OW 2893   2.922   1.933   1.736
  965SOL    HW1 2894   2.878   1.900   1.820
  965SOL    HW2 2895   2.922   1.861   1.668
  966SOL     OW 2896   1.709   2.792   2.522
  966SOL    HW1 2897   1.782   2.725   2.506
  966SOL    HW2 2898   1.671   2.821   2.435
  967SOL     OW 2899   1.106   1.100   0.340
  967SOL    HW1 2900   1.202   1.128   0.337
  967SOL    HW2 2901   1.059   1.151   0.411
  968SOL     OW 2902   1.303   2.287   1.192
  968SOL    HW1 2903   1.384   2.238   1.161
  968SOL    HW2 2904   1.249   2.317   1.114
  969SOL     OW 2905   0.816   0.392   1.574
  969SOL    HW1 2906   0.844   0.318   1.636
  969SOL    HW2 2907   0.766   0.353   1.497
  970SOL     OW 2908   1.419   2.340   1.687
  970SOL    HW1 2909   1.449   2.434   1.669
  970SOL    HW2 2910   1.495   2.277   1.669
  971SOL     OW 2911   1.454   0.188   2.276
  971SOL    HW1 2912   1.489   0.280   2.292
  971SOL    HW2 2913   1.524   0.132   2.232
  972SOL     OW 2914   1.520   2.918   0.730
  972SOL    HW1 2915   1.447   2.907   0.797
  972SOL    HW2 2916   1.585   2.987   0.761
  973SOL     OW 2917   0.738   3.098   2.087
  973SOL    HW1 2918   0.643   3.072   2.074
  973SOL    HW2 2919   0.744   3.197   2.099
  974SOL     OW 2920   0.676   0.764   3.090
  974SOL    HW1 2921   0.672   0.833   3.163
  974SOL    HW2 2922   0.771   0.756   3.058
  975SOL     OW 2923   1.009   1.592   1.254
  975SOL    HW1 2924   0.915   1.567   1.275
  975SOL    HW2 2925   1.071   1.538   1.311
  976SOL     OW 2926   0.523   1.516   1.760
  976SOL    HW1 2927   0.574   1.600   1.783
  976SOL    HW2 2928   0.548   1.485   1.669
  977SOL     OW 2929   0.220   1.278   0.300
  977SOL    HW1 2930   0.199   1.214   0.373
  977SOL    HW2 2931   0.211   1.232   0.211
  978SOL     OW 2932   2.447   0.894   0.545
  978SOL    HW1 2933   2.471   0.845   0.462
  978SOL    HW2 2934   2.397   0.977   0.522
  979SOL     OW 2935   0.874   1.287   1.000
  979SOL    HW1 2936   0.834   1.378   1.009
  979SOL    HW2 2937   0.816   1.220   1.045
  980SOL     OW 2938   1.009   2.411   1.153
  980SOL    HW1 2939   0.978   2.316   1.155
  980SOL    HW2 2940   0.931   2.472   1.136
  981SOL     OW 2941   1.322   1.822   2.023
  981SOL    HW1 2942   1.382   1.880   2.077
  981SOL    HW2 2943   1.229   1.826   2.059
  982SOL     OW 2944   1.146   3.197   0.855
  982SOL    HW1 2945   1.203   3.134   0.803
  982SOL    HW2 2946   1.058   3.154   0.875
  983SOL     OW 2947   0.052   1.476   1.867
  983SOL    HW1 2948   0.140   1.499   1.824
  983SOL    HW2 2949   0.015   1.558   1.911
  984SOL     OW 2950   0.444   3.186   1.222
  984SOL    HW1 2951   0.502   3.105   1.233
  984SOL    HW2 2952   0.420   3.198   1.126
  985SOL     OW 2953   2.328   2.944   1.725
  985SOL    HW1 2954   2.252   3.000   1.691
  985SOL    HW2 2955   2.409   3.002   1.737
  986SOL     OW 2956   1.691   0.927   1.846
  986SOL    HW1 2957   1.752   0.936   1.925
  986SOL    HW2 2958   1.735   0.963   1.764
  987SOL     OW 2959   0.039   0.173   1.910
  987SOL    HW1 2960   0.128   0.130   1.916
  987SOL    HW2 2961   0.015   0.187   1.814
  988SOL     OW 2962   3.130   1.869   1.940
  988SOL    HW1 2963   3.052   1.810   1.920
  988SOL    HW2 2964   3.215   1.816   1.933
  989SOL     OW 2965   0.188   0.256   0.417
  989SOL    HW1 2966   0.111   0.319   0.426
  989SOL    HW2 2967   0.273   0.308   0.412
  990SOL     OW 2968   0.272   1.064   2.324
  990SOL    HW1 2969   0.234   1.127   2.392
  990SOL    HW2 2970   0.317   0.988   2.372
  991SOL     OW 2971   0.496   2.199   0.870
  991SOL    HW1 2972   0.410   2.166   0.910
  991SOL    HW2 2973   0.566   2.129   0.880
  992SOL     OW 2974   1.276   1.542   1.155
  992SOL    HW1 2975   1.347   1.482   1.192
  992SOL    HW2 2976   1.214   1.488   1.098
  993SOL     OW 2977   2.338   2.173   1.305
  993SOL    HW1 2978   2.418   2.116   1.322
  993SOL    HW2 2979   2.283   2.181   1.388
  994SOL     OW 2980   2.350   2.243   2.303
  994SOL    HW1 2981   2.423   2.292   2.350
  994SOL    HW2 2982   2.308   2.302   2.234
  995SOL     OW 2983   2.746   2.656   2.707
  995SOL    HW1 2984   2.740   2.590   2.632
  995SOL    HW2 2985   2.735   2.609   2.794
  996SOL     OW 2986   3.129   0.406   0.688
  996SOL    HW1 2987   3.048   0.363   0.728
  996SOL    HW2 2988   3.111   0.429   0.593
  997SOL     OW 2989   1.335   2.031   1.914
  997SOL    HW1 2990   1.240   2.003   1.928
  997SOL    HW2 2991   1.363   2.008   1.820
  998SOL     OW 2992   0.200   0.229   2.116
  998SOL    HW1 2993   0.235   0.136   2.109
  998SOL    HW2 2994   0.100   0.227   2.117
  999SOL     OW 2995   2.584   2.400   2.849
  999SOL    HW1 2996   2.587   2.379   2.751
  999SOL    HW2 2997   2.515   2.469   2.866
 1000SOL     OW 2998   0.368   1.916   2.799
 1000SOL    HW1 2999   0.292   1.980   2.787
 1000SOL    HW2 3000   0.440   1.936   2.733
 1001SOL     OW 3001   1.350   2.578   0.174
 1001SOL    HW1 3002   1.349   2.677   0.188
 1001SOL    HW2 3003   1.445   2.546   0.167
 1002SOL     OW 3004   2.247   0.775   2.106
 1002SOL    HW1 3005   2.280   0.845   2.171
 1002SOL    HW2 3006   2.204   0.820   2.028
 1003SOL     OW 3007   1.119   3.058   3.162
 1003SOL    HW1 3008   1.060   3.139   3.163
 1003SOL    HW2 3009   1.214   3.087   3.152
 1004SOL     OW 3010   0.322   0.751   2.125
 1004SOL    HW1 3011   0.274   0.792   2.046
 1004SOL    HW2 3012   0.418   0.779   2.122
 1005SOL     OW 3013   2.854   0.452   0.211
 1005SOL    HW1 3014   2.946   0.437   0.176
 1005SOL    HW2 3015   2.847   0.413   0.303
 1006SOL     OW 3016   1.575   3.106   1.747
 1006SOL    HW1 3017   1.626   3.033   1.792
 1006SOL    HW2 3018   1.632   3.187   1.738
 1007SOL     OW 3019   0.830   0.877   2.144
 1007SOL    HW1 3020   0.781   0.811   2.087
 1007SOL    HW2 3021   0.830   0.845   2.239
 1008SOL     OW 3022   0.607   0.900   1.365
 1008SOL    HW1 3023   0.557   0.813   1.360
 1008SOL    HW2 3024   0.542   0.976   1.373
 1009SOL     OW 3025   1.622   1.095   1.121
 1009SOL    HW1 3026   1.605   1.136   1.031
 1009SOL    HW2 3027   1.605   1.163   1.192
 1010SOL     OW 3028   2.497   3.028   1.505
 1010SOL    HW1 3029   2.496   3.108   1.566
 1010SOL    HW2 3030   2.586   2.983   1.512
 1011SOL     OW 3031   0.774   3.095   2.524
 1011SOL    HW1 3032   0.686   3.052   2.506
 1011SOL    HW2 3033   0.763   3.195   2.527
 1012SOL     OW 3034   2.137   1.771   2.071
 1012SOL    HW1 3035   2.213   1.826   2.038
 1012SOL    HW2 3036   2.051   1.810   2.039
 1013SOL     OW 3037   0.618   1.428  -0.028
 1013SOL    HW1 3038   0.657   1.519  -0.013
 1013SOL    HW2 3039   0.616   1.378   0.058
 1014SOL     OW 3040   2.375   1.010   1.282
 1014SOL    HW1 3041   2.466   0.968   1.281
 1014SOL    HW2 3042   2.305   0.938   1.285
 1015SOL     OW 3043   2.205   2.591   2.898
 1015SOL    HW1 3044   2.270   2.663   2.919
 1015SOL    HW2 3045   2.254   2.504   2.889
 1016SOL     OW 3046   1.991   3.114   0.664
 1016SOL    HW1 3047   2.065   3.174   0.694
 1016SOL    HW2 3048   2.014   3.019   0.687
 1017SOL     OW 3049   0.237   1.744   0.530
 1017SOL    HW1 3050   0.286   1.831   0.528
 1017SOL    HW2 3051   0.139   1.761   0.528
 1018SOL     OW 3052   1.611   0.901   1.349
 1018SOL    HW1 3053   1.618   0.847   1.433
 1018SOL    HW2 3054   1.658   0.853   1.275
 1019SOL     OW 3055   2.928   1.672   1.117
 1019SOL    HW1 3056   2.883   1.597   1.166
 1019SOL    HW2 3057   3.007   1.636   1.067
 1020SOL     OW 3058   0.361   0.425   2.289
 1020SOL    HW1 3059   0.358   0.356   2.361
 1020SOL    HW2 3060   0.441   0.484   2.303
 1021SOL     OW 3061   2.189   0.388   1.314
 1021SOL    HW1 3062   2.196   0.289   1.306
 1021SOL    HW2 3063   2.093   0.415   1.314
 1022SOL     OW 3064   1.281   2.687   1.130
 1022SOL    HW1 3065   1.219   2.703   1.053
 1022SOL    HW2 3066   1.247   2.736   1.211
 1023SOL     OW 3067   2.658   0.042   2.541
 1023SOL    HW1 3068   2.747  -0.003   2.542
 1023SOL    HW2 3069   2.667   0.135   2.576
 1024SOL     OW 3070   1.556   3.040   1.017
 1024SOL    HW1 3071   1.491   3.064   0.945
 1024SOL    HW2 3072   1.631   2.986   0.978
 1025SOL     OW 3073   1.875   2.933   0.358
 1025SOL    HW1 3074   1.927   2.924   0.443
 1025SOL    HW2 3075   1.811   3.009   0.366
 1026SOL     OW 3076   1.987   2.095   1.615
 1026SOL    HW1 3077   2.068   2.143   1.651
 1026SOL    HW2 3078   1.916   2.162   1.593
 1027SOL     OW 3079   0.945   2.684   3.106
 1027SOL    HW1 3080   1.021   2.653   3.163
 1027SOL    HW2 3081   0.880   2.735   3.162
 1028SOL     OW 3082   2.922   1.918   0.058
 1028SOL    HW1 3083   3.011   1.876   0.041
 1028SOL    HW2 3084   2.930   2.017   0.053
 1029SOL     OW 3085   1.498   0.666   2.657
 1029SOL    HW1 3086   1.401   0.687   2.664
 1029SOL    HW2 3087   1.523   0.597   2.724
 1030SOL     OW 3088   2.940   1.418   1.867
 1030SOL    HW1 3089   2.993   1.399   1.784
 1030SOL    HW2 3090   2.921   1.516   1.873
 1031SOL     OW 3091   1.318   0.663   1.887
 1031SOL    HW1 3092   1.264   0.738   1.923
 1031SOL    HW2 3093   1.335   0.678   1.789
 1032SOL     OW 3094   0.112   0.074   0.914
 1032SOL    HW1 3095   0.015   0.057   0.895
 1032SOL    HW2 3096   0.120   0.149   0.979
 1033SOL     OW 3097   2.186   1.520   0.983
 1033SOL    HW1 3098   2.198   1.607   1.032
 1033SOL    HW2 3099   2.258   1.456   1.009
 1034SOL     OW 3100   2.867   0.380   1.038
 1034SOL    HW1 3101   2.770   0.398   1.058
 1034SOL    HW2 3102   2.910   0.464   1.004
 1035SOL     OW 3103   0.734   1.258   0.261
 1035SOL    HW1 3104   0.729   1.174   0.315
 1035SOL    HW2 3105   0.776   1.238   0.173
 1036SOL     OW 3106   0.316   1.090   1.240
 1036SOL    HW1 3107   0.366   1.004   1.244
 1036SOL    HW2 3108   0.230   1.081   1.290
 1037SOL     OW 3109   1.740   0.689   0.542
 1037SOL    HW1 3110   1.735   0.608   0.484
 1037SOL    HW2 3111   1.828   0.691   0.589
 1038SOL     OW 3112   2.739   1.639   0.667
 1038SOL    HW1 3113   2.643   1.646   0.693
 1038SOL    HW2 3114   2.765   1.543   0.662
 1039SOL     OW 3115   2.354   2.686   0.498
 1039SOL    HW1 3116   2.257   2.711   0.499
 1039SOL    HW2 3117   2.409   2.768   0.483
 1040SOL     OW 3118   1.844   0.510   1.065
 1040SOL    HW1 3119   1.818   0.467   0.978
 1040SOL    HW2 3120   1.929   0.560   1.053
 1041SOL     OW 3121   0.146   1.410   3.163
 1041SOL    HW1 3122   0.110   1.403   3.070
 1041SOL    HW2 3123   0.235   1.454   3.161
 1042SOL     OW 3124   1.602   2.436   0.723
 1042SOL    HW1 3125   1.568   2.434   0.629
 1042SOL    HW2 3126   1.585   2.526   0.763
 1043SOL     OW 3127   1.831   2.407   2.510
 1043SOL    HW1 3128   1.835   2.492   2.457
 1043SOL    HW2 3129   1.903   2.346   2.479
 1044SOL     OW 3130   2.451   1.714   1.448
 1044SOL    HW1 3131   2.496   1.779   1.386
 1044SOL    HW2 3132   2.364   1.684   1.409
 1045SOL     OW 3133   1.196   2.260   1.536
 1045SOL    HW1 3134   1.155   2.169   1.535
 1045SOL    HW2 3135   1.125   2.329   1.521
 1046SOL     OW 3136   0.953   0.333   0.287
 1046SOL    HW1 3137   0.925   0.426   0.264
 1046SOL    HW2 3138   1.050   0.321   0.267
 1047SOL     OW 3139   1.374   0.224   1.124
 1047SOL    HW1 3140   1.382   0.126   1.103
 1047SOL    HW2 3141   1.464   0.259   1.150
 1048SOL     OW 3142   0.984   0.489   0.806
 1048SOL    HW1 3143   1.018   0.525   0.720
 1048SOL    HW2 3144   0.925   0.557   0.850
 1049SOL     OW 3145   1.878   0.968   2.207
 1049SOL    HW1 3146   1.866   0.987   2.109
 1049SOL    HW2 3147   1.955   1.022   2.241
 1050SOL     OW 3148   1.071   2.857   1.137
 1050SOL    HW1 3149   1.003   2.930   1.140
 1050SOL    HW2 3150   1.025   2.769   1.135
 1051SOL     OW 3151   1.590   1.840   1.322
 1051SOL    HW1 3152   1.591   1.940   1.326
 1051SOL    HW2 3153   1.683   1.805   1.322
 1052SOL     OW 3154   1.271   1.397   2.841
 1052SOL    HW1 3155   1.242   1.367   2.751
 1052SOL    HW2 3156   1.336   1.472   2.831
 1053SOL     OW 3157   2.932   0.089   2.627
 1053SOL    HW1 3158   2.978   0.172   2.596
 1053SOL    HW2 3159   3.000   0.018   2.645
 1054SOL     OW 3160   0.465   3.115   1.872
 1054SOL    HW1 3161   0.533   3.041   1.881
 1054SOL    HW2 3162   0.499   3.197   1.918
 1055SOL     OW 3163   0.882   2.155   1.642
 1055SOL    HW1 3164   0.827   2.152   1.559
 1055SOL    HW2 3165   0.943   2.235   1.639
 1056SOL     OW 3166   1.800   2.956   3.128
 1056SOL    HW1 3167   1.717   2.911   3.162
 1056SOL    HW2 3168   1.781   3.053   3.113
 1057SOL     OW 3169   0.240   1.352   2.487
 1057SOL    HW1 3170   0.262   1.433   2.542
 1057SOL    HW2 3171   0.206   1.280   2.547
 1058SOL     OW 3172   2.812   0.921   0.090
 1058SOL    HW1 3173   2.729   0.867   0.074
 1058SOL    HW2 3174   2.868   0.921   0.008
 1059SOL     OW 3175   0.232   2.326   2.367
 1059SOL    HW1 3176   0.247   2.229   2.349
 1059SOL    HW2 3177   0.288   2.354   2.445
 1060SOL     OW 3178   1.318   1.782   2.297
 1060SOL    HW1 3179   1.364   1.856   2.346
 1060SOL    HW2 3180   1.220   1.801   2.292
 1061SOL     OW 3181   1.274   0.572   2.813
 1061SOL    HW1 3182   1.193   0.589   2.757
 1061SOL    HW2 3183   1.282   0.474   2.832
 1062SOL     OW 3184   3.142   1.246   2.952
 1062SOL    HW1 3185   3.206   1.255   2.875
 1062SOL    HW2 3186   3.173   1.303   3.028
 1063SOL     OW 3187   1.750   2.276   1.433
 1063SOL    HW1 3188   1.744   2.369   1.470
 1063SOL    HW2 3189   1.718   2.211   1.501
 1064SOL     OW 3190   0.909   1.790   0.882
 1064SOL    HW1 3191   0.981   1.723   0.899
 1064SOL    HW2 3192   0.950   1.881   0.876
 1065SOL     OW 3193   0.504   2.430   2.402
 1065SOL    HW1 3194   0.549   2.512   2.369
 1065SOL    HW2 3195   0.524   2.416   2.499
 1066SOL     OW 3196   2.515   2.240   0.471
 1066SOL    HW1 3197   2.418   2.220   0.462
 1066SOL    HW2 3198   2.569   2.164   0.436
 1067SOL     OW 3199   0.629   1.565   1.142
 1067SOL    HW1 3200   0.660   1.474   1.115
 1067SOL    HW2 3201   0.702   1.631   1.129
 1068SOL     OW 3202   0.073   1.947   2.636
 1068SOL    HW1 3203   0.017   1.874   2.599
 1068SOL    HW2 3204   0.015   2.019   2.675
 1069SOL     OW 3205   1.485   3.056   2.860
 1069SOL    HW1 3206   1.566   3.070   2.917
 1069SOL    HW2 3207   1.475   3.134   2.798
 1070SOL     OW 3208   0.636   2.334   1.072
 1070SOL    HW1 3209   0.639   2.432   1.054
 1070SOL    HW2 3210   0.580   2.316   1.153
 1071SOL     OW 3211   1.737   0.312   2.192
 1071SOL    HW1 3212   1.687   0.247   2.135
 1071SOL    HW2 3213   1.727   0.286   2.288
 1072SOL     OW 3214   2.524   2.517   1.905
 1072SOL    HW1 3215   2.569   2.605   1.914
 1072SOL    HW2 3216   2.590   2.444   1.924
 1073SOL     OW 3217   2.296   1.623   0.151
 1073SOL    HW1 3218   2.385   1.668   0.147
 1073SOL    HW2 3219   2.276   1.580   0.062
 1074SOL     OW 3220   0.624   2.762   0.259
 1074SOL    HW1 3221   0.527   2.783   0.249
 1074SOL    HW2 3222   0.635   2.665   0.279
 1075SOL     OW 3223   2.527   0.976   1.658
 1075SOL    HW1 3224   2.468   1.051   1.627
 1075SOL    HW2 3225   2.529   0.904   1.589
 1076SOL     OW 3226   2.649   0.567   1.789
 1076SOL    HW1 3227   2.592   0.496   1.746
 1076SOL    HW2 3228   2.639   0.562   1.888
 1077SOL     OW 3229   2.804   2.515   0.308
 1077SOL    HW1 3230   2.895   2.516   0.350
 1077SOL    HW2 3231   2.758   2.428   0.328
 1078SOL     OW 3232   0.367   2.806   0.857
 1078SOL    HW1 3233   0.429   2.821   0.780
 1078SOL    HW2 3234   0.390   2.719   0.902
 1079SOL     OW 3235   1.605   0.985   0.509
 1079SOL    HW1 3236   1.511   1.016   0.495
 1079SOL    HW2 3237   1.626   0.911   0.446
 1080SOL     OW 3238   1.731   0.254   1.606
 1080SOL    HW1 3239   1.806   0.193   1.580
 1080SOL    HW2 3240   1.691   0.222   1.691
 1081SOL     OW 3241   0.490   2.263   0.615
 1081SOL    HW1 3242   0.491   2.332   0.687
 1081SOL    HW2 3243   0.529   2.178   0.649
 1082SOL     OW 3244   0.059   2.989   2.750
 1082SOL    HW1 3245   0.128   2.919   2.735
 1082SOL    HW2 3246   0.080   3.039   2.834
 1083SOL     OW 3247   2.059   2.156  -0.032
 1083SOL    HW1 3248   1.967   2.194  -0.026
 1083SOL    HW2 3249   2.057   2.059  -0.011
 1084SOL     OW 3250   2.357   0.189   0.540
 1084SOL    HW1 3251   2.258   0.184   0.524
 1084SOL    HW2 3252   2.402   0.115   0.490
 1085SOL     OW 3253   2.052   3.197   0.434
 1085SOL    HW1 3254   2.123   3.126   0.429
 1085SOL    HW2 3255   1.962   3.154   0.434
 1086SOL     OW 3256   0.435   2.670   2.934
 1086SOL    HW1 3257   0.446   2.757   2.982
 1086SOL    HW2 3258   0.506   2.661   2.864
 1087SOL     OW 3259   1.138   0.821   2.174
 1087SOL    HW1 3260   1.122   0.755   2.248
 1087SOL    HW2 3261   1.051   0.847   2.133
 1088SOL     OW 3262   2.706   2.942   2.471
 1088SOL    HW1 3263   2.684   3.038   2.487
 1088SOL    HW2 3264   2.756   2.933   2.384
 1089SOL     OW 3265   1.859   2.067   2.633
 1089SOL    HW1 3266   1.952   2.095   2.658
 1089SOL    HW2 3267   1.849   2.071   2.533
 1090SOL     OW 3268   2.701   0.640   1.565
 1090SOL    HW1 3269   2.710   0.547   1.529
 1090SOL    HW2 3270   2.787   0.689   1.551
 1091SOL     OW 3271   3.068   1.132   1.947
 1091SOL    HW1 3272   3.005   1.057   1.926
 1091SOL    HW2 3273   3.015   1.215   1.966
 1092SOL     OW 3274   0.671   1.818   1.623
 1092SOL    HW1 3275   0.720   1.848   1.542
 1092SOL    HW2 3276   0.687   1.720   1.637
 1093SOL     OW 3277   2.843   2.595   1.340
 1093SOL    HW1 3278   2.804   2.681   1.305
 1093SOL    HW2 3279   2.871   2.538   1.263
 1094SOL     OW 3280   2.615   0.096   1.916
 1094SOL    HW1 3281   2.613  -0.003   1.932
 1094SOL    HW2 3282   2.522   0.130   1.903
 1095SOL     OW 3283   1.106   0.065   1.752
 1095SOL    HW1 3284   1.206   0.075   1.753
 1095SOL    HW2 3285   1.063   0.152   1.775
 1096SOL     OW 3286   1.840   1.352   1.169
 1096SOL    HW1 3287   1.750   1.320   1.139
 1096SOL    HW2 3288   1.901   1.274   1.181
 1097SOL     OW 3289   2.349   2.184   2.018
 1097SOL    HW1 3290   2.254   2.212   2.033
 1097SOL    HW2 3291   2.380   2.220   1.930
 1098SOL     OW 3292   2.800   1.653   0.936
 1098SOL    HW1 3293   2.862   1.646   0.858
 1098SOL    HW2 3294   2.775   1.561   0.967
 1099SOL     OW 3295   2.374   1.374   0.665
 1099SOL    HW1 3296   2.333   1.291   0.627
 1099SOL    HW2 3297   2.473   1.371   0.654
 1100SOL     OW 3298   1.273   1.137   1.459
 1100SOL    HW1 3299   1.294   1.229   1.490
 1100SOL    HW2 3300   1.358   1.083   1.455
 1101SOL     OW 3301   2.320   2.427   0.330
 1101SOL    HW1 3302   2.250   2.498   0.337
 1101SOL    HW2 3303   2.276   2.337   0.324
 1102SOL     OW 3304   1.968   1.880   2.479
 1102SOL    HW1 3305   2.026   1.908   2.556
 1102SOL    HW2 3306   1.975   1.781   2.468
 1103SOL     OW 3307   1.254   3.086   1.571
 1103SOL    HW1 3308   1.293   3.143   1.499
 1103SOL    HW2 3309   1.313   3.007   1.586
 1104SOL     OW 3310   2.699   0.921   2.552
 1104SOL    HW1 3311   2.666   1.001   2.602
 1104SOL    HW2 3312   2.761   0.950   2.480
 1105SOL     OW 3313   0.385   0.442   2.583
 1105SOL    HW1 3314   0.330   0.359   2.579
 1105SOL    HW2 3315   0.476   0.424   2.545
 1106SOL     OW 3316   2.985   0.009   2.355
 1106SOL    HW1 3317   3.009   0.105   2.370
 1106SOL    HW2 3318   2.887  -0.003   2.372
 1107SOL     OW 3319   1.753   1.044   1.556
 1107SOL    HW1 3320   1.807   0.959   1.553
 1107SOL    HW2 3321   1.815   1.122   1.564
    1NA      Na 3322   2.061   2.386   0.320
    2NA      Na 3323   0.060   2.047   0.407
    3NA      Na 3324   2.658   1.497   3.120
    4NA      Na 3325   2.692   0.529   2.990
    1CL      Cl 3326   3.224   3.200   1.183
    2CL      Cl 3327   0.066   3.199   1.456
    3CL      Cl 3328   0.671   3.205   1.331
    4CL      Cl 3329   0.277   3.201   1.381
   3.20000   3.20000   3.20000
